 Gaussian 16, Revision B.01,
 Gaussian 16:  ES64L-G16RevB.01 20-Dec-2017

 ------------------------------------------
 #p opt freq=raman b3lyp/6-311g cphf=rdfreq
 ------------------------------------------

 ---------
 step0.pdb
 ---------
 Symbolic Z-matrix:
 Charge =  0 Multiplicity = 1

 SCF Done:  E(RB3LYP) =  -1560.39938274     A.U. after   15 cycles
 SCF Done:  E(RB3LYP) =  -1560.42377769     A.U. after   13 cycles
 SCF Done:  E(RB3LYP) =  -1560.42767690     A.U. after   13 cycles
 SCF Done:  E(RB3LYP) =  -1560.42806713     A.U. after   13 cycles
 SCF Done:  E(RB3LYP) =  -1560.42802727     A.U. after   12 cycles
 SCF Done:  E(RB3LYP) =  -1560.42823869     A.U. after   12 cycles
 SCF Done:  E(RB3LYP) =  -1560.42825553     A.U. after   11 cycles
 SCF Done:  E(RB3LYP) =  -1560.42826922     A.U. after   10 cycles
 SCF Done:  E(RB3LYP) =  -1560.42827042     A.U. after    9 cycles
 SCF Done:  E(RB3LYP) =  -1560.42827079     A.U. after    8 cycles
 Optimization completed.
    -- Stationary point found.
 Normal termination of Gaussian 16 at Fri Sep 29 16:40:01 2023.

 ------------------------------------------------------------------
 #P Geom=AllCheck Guess=TCheck SCRF=Check GenChk RB3LYP/6-311G Freq
 ------------------------------------------------------------------

 Structure from the checkpoint file:  "/home/groups/asalleo/nsiemons/PEDOT/0001/001/Gau-8018.chk"
 ---------
 step0.pdb
 ---------
 Charge =  0 Multiplicity = 1

                         Standard orientation:
 ---------------------------------------------------------------------
 Center     Atomic      Atomic             Coordinates (Angstroms)
 Number     Number       Type             X           Y           Z
 ---------------------------------------------------------------------
      1          6           0       -2.896713   -0.992769   -0.031111
      2          6           0       -1.906019    0.044153   -0.012812
      3          6           0       -0.602732   -0.383270   -0.011038
      4         16           0       -0.582447   -2.223480   -0.044588
      5          6           0       -2.389927   -2.249765   -0.049912
      6          8           0       -4.265714   -0.700007   -0.050345
      7          8           0       -2.257699    1.396997    0.022211
      8          6           0       -4.571961    0.678906    0.360569
      9          6           0       -3.656809    1.651647   -0.359029
     10          1           0       -2.920781   -3.182215   -0.067273
     11          1           0       -5.613404    0.831367    0.091302
     12          1           0       -4.452347    0.768250    1.442186
     13          1           0       -3.755911    1.546480   -1.440908
     14          1           0       -3.846831    2.680598   -0.067731
     15          6           0        0.602789    0.383293    0.012085
     16          6           0        1.906062   -0.044139    0.013091
     17          6           0        2.896732    0.992787    0.031796
     18          6           0        2.389966    2.249771    0.051678
     19         16           0        0.582486    2.223486    0.047337
     20          8           0        2.257544   -1.396968   -0.022861
     21          8           0        4.265750    0.699883    0.049976
     22          6           0        3.657369   -1.652235    0.355428
     23          6           0        4.571336   -0.678299   -0.364014
     24          1           0        3.846797   -2.680703    0.062057
     25          1           0        3.758349   -1.548920    1.437312
     26          1           0        4.449836   -0.765647   -1.445597
     27          1           0        5.613228   -0.831226   -0.096827
     28          1           0        2.920821    3.182215    0.069261
 ---------------------------------------------------------------------

 SCF Done:  E(RB3LYP) =  -1560.42827079     A.U. after    1 cycles

 The electronic state is 1-A.
 Alpha  occ. eigenvalues --  -88.88185 -88.88184 -19.16607 -19.16606 -19.16050
 Alpha  occ. eigenvalues --  -19.16049 -10.25204 -10.25203 -10.25079 -10.25077
 Alpha  occ. eigenvalues --  -10.24877 -10.24876 -10.24780 -10.24780 -10.22712
 Alpha  occ. eigenvalues --  -10.22672 -10.20313 -10.20311  -7.96815  -7.96815
 Alpha  occ. eigenvalues --   -5.93165  -5.93165  -5.92775  -5.92774  -5.92134
 Alpha  occ. eigenvalues --   -5.92133  -1.09001  -1.08965  -1.05379  -1.05357
 Alpha  occ. eigenvalues --   -0.89606  -0.87751  -0.79265  -0.79193  -0.77818
 Alpha  occ. eigenvalues --   -0.73363  -0.71606  -0.71439  -0.67194  -0.65246
 Alpha  occ. eigenvalues --   -0.61896  -0.59505  -0.55382  -0.55198  -0.54595
 Alpha  occ. eigenvalues --   -0.53545  -0.51442  -0.50329  -0.49727  -0.47360
 Alpha  occ. eigenvalues --   -0.45316  -0.45165  -0.44688  -0.44568  -0.44272
 Alpha  occ. eigenvalues --   -0.43788  -0.41354  -0.40486  -0.39510  -0.39360
 Alpha  occ. eigenvalues --   -0.37928  -0.35865  -0.34503  -0.34499  -0.34205
 Alpha  occ. eigenvalues --   -0.32944  -0.31878  -0.31457  -0.30797  -0.26349
 Alpha  occ. eigenvalues --   -0.22824  -0.22575  -0.19399
 Alpha virt. eigenvalues --   -0.04847   0.00280   0.01684   0.01796   0.02432
 Alpha virt. eigenvalues --    0.03923   0.04112   0.05194   0.07318   0.07576
 Alpha virt. eigenvalues --    0.07609   0.07848   0.08262   0.08626   0.08663

 Mulliken charges:
               1
     1  C    0.360925
     2  C    0.321741
     3  C   -0.335369
     4  S    0.413119
     5  C   -0.467759
     6  O   -0.505062
     7  O   -0.511759
     8  C   -0.143872
     9  C   -0.138002
    10  H    0.198289
    11  H    0.198514
    12  H    0.203415
    13  H    0.205873
    14  H    0.199914
    15  C   -0.335384
    16  C    0.321773
    17  C    0.360884
    18  C   -0.467724
    19  S    0.413122
    20  O   -0.511813
    21  O   -0.505008
    22  C   -0.137678
    23  C   -0.144201
    24  H    0.199905
    25  H    0.205877
    26  H    0.203434
    27  H    0.198551
    28  H    0.198294
 Sum of Mulliken charges =  -0.00000

 Dipole moment (field-independent basis, Debye):
    X=              0.0013    Y=              0.0004    Z=             -0.0077  Tot=              0.0078
 Quadrupole moment (field-independent basis, Debye-Ang):
   XX=            -92.9371   YY=           -113.0717   ZZ=           -121.4550
   XY=            -18.3880   XZ=             -1.4847   YZ=             -1.3228

  Exact polarizability: 271.901  -3.524 197.720   0.793   1.351  85.632
 Approx polarizability: 407.318   0.095 342.880   4.613   6.900 122.232

                      1                      2                      3
                      A                      A                      A
 Frequencies --     27.8592                61.7232                87.8574
 Red. masses --      6.2722                 6.1543                 7.2484
 Frc consts  --      0.0029                 0.0138                 0.0330
 IR Inten    --      2.3007                 1.8073                 1.4314
 Raman Activ --      0.0000                 0.0000                 0.0000

                      4                      5                      6
                      A                      A                      A
 Frequencies --    103.9602               111.4869               127.1823
 Red. masses --      3.8066                 4.2287                 6.2503
 Frc consts  --      0.0242                 0.0310                 0.0596
 IR Inten    --      0.0000                21.8288                 0.0000
 Raman Activ --      0.5603                 0.0000                 1.0077

                      7                      8                      9
                      A                      A                      A
 Frequencies --    170.2960               216.6194               261.7480
 Red. masses --      6.9347                 4.4036                12.8928
 Frc consts  --      0.1185                 0.1217                 0.5204
 IR Inten    --      0.0000                 0.1972                 0.0000
 Raman Activ --      7.6201                 0.0000                 6.0405

                     10                     11                     12
                      A                      A                      A
 Frequencies --    273.2445               295.3280               321.6939
 Red. masses --      5.5588                11.4958                 3.1383
 Frc consts  --      0.2445                 0.5907                 0.1914
 IR Inten    --      0.0000                 4.0668                 0.0011
 Raman Activ --      7.5078                 0.0000                 3.8423

                     13                     14                     15
                      A                      A                      A
 Frequencies --    330.3897               347.4251               388.4306
 Red. masses --      2.3936                 4.8734                 7.2342
 Frc consts  --      0.1539                 0.3466                 0.6431
 IR Inten    --     15.9352                 0.0005                 9.1568
 Raman Activ --      0.0004                 5.1052                 0.0000

                     16                     17                     18
                      A                      A                      A
 Frequencies --    419.0772               428.2985               431.8543
 Red. masses --      7.6623                 9.3154                11.4688
 Frc consts  --      0.7929                 1.0068                 1.2602
 IR Inten    --      0.0000                 0.9627                 0.0000
 Raman Activ --     12.7489                 0.0003                21.6450

                     19                     20                     21
                      A                      A                      A
 Frequencies --    467.0764               516.3514               527.5954
 Red. masses --      4.2786                 3.5167                 4.0744
 Frc consts  --      0.5500                 0.5524                 0.6682
 IR Inten    --      0.8808                 7.6460                 0.0000
 Raman Activ --      0.0002                 0.0001                14.1706

                     22                     23                     24
                      A                      A                      A
 Frequencies --    530.6648               539.3049               553.9836
 Red. masses --      3.5336                12.8000                 6.0589
 Frc consts  --      0.5863                 2.1934                 1.0956
 IR Inten    --      0.0001                 5.8273                 0.0000
 Raman Activ --      6.6763                 0.0001                17.0372

                     25                     26                     27
                      A                      A                      A
 Frequencies --    677.0417               683.1861               703.3456
 Red. masses --      3.4050                 3.4028                 5.7996
 Frc consts  --      0.9196                 0.9357                 1.6904
 IR Inten    --     32.6112                 3.6105                 0.0002
 Raman Activ --      0.0000                 0.0000                12.8171

                     28                     29                     30
                      A                      A                      A
 Frequencies --    706.3828               725.5424               733.7228
 Red. masses --      4.6518                 1.7186                 1.4501
 Frc consts  --      1.3676                 0.5330                 0.4599
 IR Inten    --      0.0000                96.5304                 0.0004
 Raman Activ --     10.4729                 0.0000                 1.1330

                     31                     32                     33
                      A                      A                      A
 Frequencies --    762.0582               765.5833               769.2216
 Red. masses --      7.5871                 4.6108                 4.6334
 Frc consts  --      2.5960                 1.5922                 1.6153
 IR Inten    --     21.8557                 4.9863                 0.0001
 Raman Activ --      0.0000                 0.0000                14.3559

                     34                     35                     36
                      A                      A                      A
 Frequencies --    770.9114               838.7083               897.4998
 Red. masses --      8.4912                 4.6711                 2.8752
 Frc consts  --      2.9732                 1.9359                 1.3646
 IR Inten    --     30.7414                 0.0000               155.4252
 Raman Activ --      0.0000                 5.8397                 0.0001

                     37                     38                     39
                      A                      A                      A
 Frequencies --    900.8590               923.4282               969.0069
 Red. masses --      3.0997                 4.1452                 4.5962
 Frc consts  --      1.4821                 2.0826                 2.5428
 IR Inten    --      0.0007                90.5245                 0.0000
 Raman Activ --     22.7260                 0.0000                12.2092

                     40                     41                     42
                      A                      A                      A
 Frequencies --   1005.3721              1034.2004              1053.8270
 Red. masses --      2.8820                 2.5792                 3.8465
 Frc consts  --      1.7163                 1.6254                 2.5168
 IR Inten    --      0.0000                13.7148               258.8837
 Raman Activ --     17.8426                 0.0000                 0.0001

                     43                     44                     45
                      A                      A                      A
 Frequencies --   1068.0309              1113.1350              1118.3991
 Red. masses --      4.3201                 5.3202                 1.9061
 Frc consts  --      2.9034                 3.8840                 1.4047
 IR Inten    --      0.0004                 0.0002                 0.0043
 Raman Activ --     16.8856                24.4938                 4.8646

                     46                     47                     48
                      A                      A                      A
 Frequencies --   1118.4755              1141.0209              1178.1333
 Red. masses --      1.9023                 4.4580                 1.6002
 Frc consts  --      1.4021                 3.4196                 1.3086
 IR Inten    --      0.2464                44.5240                 0.0001
 Raman Activ --      0.0912                 0.0000                22.3994

                     49                     50                     51
                      A                      A                      A
 Frequencies --   1192.8847              1257.7825              1258.5409
 Red. masses --      1.7019                 1.1526                 1.1586
 Frc consts  --      1.4269                 1.0743                 1.0813
 IR Inten    --    112.1962                 0.0011                 7.8488
 Raman Activ --      0.0000                21.8802                 0.0033

                     52                     53                     54
                      A                      A                      A
 Frequencies --   1285.1704              1286.9430              1289.0203
 Red. masses --      2.5486                 1.2109                 1.6716
 Frc consts  --      2.4801                 1.1816                 1.6364
 IR Inten    --      0.0002                 6.9398                 0.0000
 Raman Activ --      6.7080                 0.0002                78.2593

                     55                     56                     57
                      A                      A                      A
 Frequencies --   1380.2821              1391.0138              1404.4738
 Red. masses --      1.8941                 1.5858                 1.2778
 Frc consts  --      2.1262                 1.8079                 1.4850
 IR Inten    --    587.3268                 0.0002                 1.7493
 Raman Activ --      0.0000               143.9913                 0.0005

                     58                     59                     60
                      A                      A                      A
 Frequencies --   1406.6143              1430.2712              1436.1274
 Red. masses --      1.3176                 2.2946                 3.1068
 Frc consts  --      1.5359                 2.7656                 3.7753
 IR Inten    --      0.0001               198.5351                 0.0014
 Raman Activ --      7.3087                 0.0024               459.1169

                     61                     62                     63
                      A                      A                      A
 Frequencies --   1512.2015              1518.9295              1523.3242
 Red. masses --      2.0228                 1.1259                 1.1026
 Frc consts  --      2.7253                 1.5305                 1.5075
 IR Inten    --      6.8520                 0.0004                16.7795
 Raman Activ --      0.0002               111.4331                 0.0057

                     64                     65                     66
                      A                      A                      A
 Frequencies --   1523.6591              1528.3878              1565.5375
 Red. masses --      1.1022                 1.9310                 6.8959
 Frc consts  --      1.5076                 2.6577                 9.9579
 IR Inten    --      0.0015                33.3283                 0.0000
 Raman Activ --     49.8997                 0.0002              1789.2404

                     67                     68                     69
                      A                      A                      A
 Frequencies --   1619.0324              1656.4713              3036.7532
 Red. masses --      8.8022                10.6743                 1.0684
 Frc consts  --     13.5941                17.2567                 5.8051
 IR Inten    --     16.3232                 0.0000                80.5500
 Raman Activ --      0.0000              1083.2741                 8.2786

                     70                     71                     72
                      A                      A                      A
 Frequencies --   3037.0045              3046.6167              3046.6359
 Red. masses --      1.0685                 1.0624                 1.0624
 Frc consts  --      5.8064                 5.8101                 5.8102
 IR Inten    --      1.4957                75.0003                10.0929
 Raman Activ --    452.4187                11.7180                85.9101

                     73                     74                     75
                      A                      A                      A
 Frequencies --   3130.3821              3130.5649              3134.6257
 Red. masses --      1.0991                 1.0990                 1.1023
 Frc consts  --      6.3456                 6.3460                 6.3816
 IR Inten    --     44.8625                15.8361                 8.6681
 Raman Activ --    116.4002               331.0236               150.5132

                     76                     77                     78
                      A                      A                      A
 Frequencies --   3134.6452              3287.4082              3287.5525
 Red. masses --      1.1024                 1.0964                 1.0964
 Frc consts  --      6.3821                 6.9809                 6.9818
 IR Inten    --     25.2171                 5.4292                 0.0051
 Raman Activ --     51.3596                 0.2768               300.6498

 - Thermochemistry -
 -------------------
 Temperature   298.150 Kelvin.  Pressure   1.00000 Atm.
 Atom     1 has atomic number  6 and mass  12.00000

 Molecular mass:   282.00205 amu.
 Principal axes and moments of inertia in atomic units:
                           1         2         3
     Eigenvalues --  2414.639237921.47240**********
           X            0.99982  -0.01915  -0.00095
           Y            0.01915   0.99981  -0.00301
           Z            0.00101   0.00299   1.00000
 This molecule is an asymmetric top.
 Rotational symmetry number  1.
 Warning -- assumption of classical behavior for rotation
           may cause significant error
 Rotational temperatures (Kelvin)      0.03587     0.01093     0.00847
 Rotational constants (GHZ):           0.74742     0.22783     0.17643
 Zero-point vibrational energy     531951.8 (Joules/Mol)
                                  127.13954 (Kcal/Mol)
 Warning -- explicit consideration of  24 degrees of freedom as
           vibrations may cause significant error
 Vibrational temperatures:     40.08    88.81   126.41   149.58   160.40
          (Kelvin)            182.99   245.02   311.67   376.60   393.14
                              424.91   462.85   475.36   499.87   558.87
                              602.96   616.23   621.34   672.02   742.91
                              759.09   763.51   775.94   797.06   974.11
                              982.95  1011.96  1016.33  1043.89  1055.66
                             1096.43  1101.50  1106.74  1109.17  1206.71
                             1291.30  1296.14  1328.61  1394.18  1446.51
                             1487.98  1516.22  1536.66  1601.55  1609.13
                             1609.24  1641.67  1695.07  1716.30  1809.67
                             1810.76  1849.07  1851.62  1854.61  1985.92
                             2001.36  2020.72  2023.80  2057.84  2066.27
                             2175.72  2185.40  2191.72  2192.21  2199.01
                             2252.46  2329.43  2383.29  4369.21  4369.57
                             4383.40  4383.43  4503.92  4504.18  4510.03
                             4510.06  4729.85  4730.05

 Zero-point correction=                           0.202610 (Hartree/Particle)
 Thermal correction to Energy=                    0.217758
 Thermal correction to Enthalpy=                  0.218702
 Thermal correction to Gibbs Free Energy=         0.159482
 Sum of electronic and zero-point Energies=          -1560.225661
 Sum of electronic and thermal Energies=             -1560.210513
 Sum of electronic and thermal Enthalpies=           -1560.209569
 Sum of electronic and thermal Free Energies=        -1560.268788

                     E (Thermal)             CV                S
                      KCal/Mol        Cal/Mol-Kelvin    Cal/Mol-Kelvin
 Total                  136.645             59.255            124.638
 Electronic               0.000              0.000              0.000
 Translational            0.889              2.981             42.808
 Rotational               0.889              2.981             33.636
 Vibrational            134.867             53.293             48.193
 Vibration     1          0.593              1.984              5.976
 Vibration     2          0.597              1.973              4.401
 Vibration     3          0.601              1.958              3.707
 Vibration     4          0.605              1.946              3.379
 Vibration     5          0.607              1.940              3.243
 Vibration     6          0.611              1.926              2.988
 Vibration     7          0.625              1.879              2.432
 Vibration     8          0.645              1.816              1.987
 Vibration     9          0.669              1.743              1.650
 Vibration    10          0.676              1.723              1.576
 Vibration    11          0.690              1.682              1.443
 Vibration    12          0.707              1.632              1.301
 Vibration    13          0.713              1.615              1.258
 Vibration    14          0.725              1.581              1.178
 Vibration    15          0.757              1.495              1.006
 Vibration    16          0.782              1.429              0.895
 Vibration    17          0.790              1.409              0.864
 Vibration    18          0.793              1.401              0.853
 Vibration    19          0.824              1.323              0.746
 Vibration    20          0.871              1.214              0.618
 Vibration    21          0.883              1.189              0.593
 Vibration    22          0.886              1.182              0.586
 Vibration    23          0.894              1.163              0.567
 Vibration    24          0.909              1.131              0.536

                           ! Non-Optimized Parameters !
 Normal termination of Gaussian 16 at Fri Sep 29 16:46:50 2023.
