 Gaussian 16, Revision C.01,
 Gaussian 16:  ES64L-G16RevC.01  3-Jul-2019

 ----------------------------------------------------
 #p wB97XD/6-311(d,p) Geom=AllCheck guess=read stable
 ----------------------------------------------------

 Structure from the checkpoint file:  "checkpoint.chk"
 ---
 011
 ---
 Charge = -6 Multiplicity = 5

                         Standard orientation:
 ---------------------------------------------------------------------
 Center     Atomic      Atomic             Coordinates (Angstroms)
 Number     Number       Type             X           Y           Z
 ---------------------------------------------------------------------
      1          6           0      -29.587614   -2.294075    0.001864
      2          1           0      -28.890075   -3.123003    0.001841
      3          6           0      -30.946412   -2.498112    0.001902
      4          1           0      -31.363944   -3.497773    0.001910
      5          6           0      -31.843162   -1.410220    0.001929
      6          6           0      -33.265816   -1.674215    0.001963
      7          8           0      -33.799567   -2.777400    0.001971
      8          7           0      -34.065515   -0.512397    0.001978
      9          6           0      -33.606724    0.805792    0.001972
     10          7           0      -34.589590    1.688752    0.001982
     11          6           0      -32.200093    1.044617    0.001944
     12          6           0      -31.667784    2.349651    0.001930
     13          1           0      -32.357863    3.184842    0.001947
     14          6           0      -30.307479    2.544104    0.001893
     15          1           0      -29.880566    3.539858    0.001877
     16          6           0      -29.421752    1.454075    0.001864
     17          6           0      -27.646215   -0.746820    0.001802
     18          7           0      -26.685146   -1.628313    0.001761
     19          6           0      -25.507576   -0.894221    0.001715
     20          6           0      -24.197914   -1.372394    0.001647
     21          1           0      -23.962024   -2.425480    0.001621
     22          6           0      -23.215209   -0.396762    0.001599
     23          6           0      -23.489811    0.997702    0.001623
     24          6           0      -24.801194    1.473263    0.001691
     25          1           0      -25.032103    2.527386    0.001704
     26          6           0      -25.783357    0.495164    0.001733
     27          7           0      -27.180925    0.573205    0.001783
     28          6           0      -27.982374    1.719863    0.001807
     29          8           0      -27.485692    2.833710    0.001821
     30          6           0      -29.064508   -0.990480    0.001850
     31          6           0      -29.927850    0.128372    0.001880
     32          6           0      -31.342148   -0.081607    0.001920
     33          6           0      -17.348777   -2.282943    0.001357
     34          1           0      -16.658551   -3.118055    0.001335
     35          6           0      -18.709302   -2.475883    0.001396
     36          1           0      -19.135038   -3.472215    0.001401
     37          6           0      -19.597832   -1.382680    0.001414
     38          6           0      -21.027170   -1.638137    0.001420
     39          8           0      -21.555472   -2.741901    0.001572
     40          7           0      -21.822493   -0.476247    0.001505
     41          6           0      -21.353247    0.839284    0.001504
     42          7           0      -22.319976    1.729000    0.001565
     43          6           0      -19.939532    1.070169    0.001439
     44          6           0      -19.401888    2.371181    0.001428
     45          1           0      -20.089513    3.208496    0.001459
     46          6           0      -18.040548    2.560777    0.001377
     47          1           0      -17.610645    3.555269    0.001362
     48          6           0      -17.157715    1.466414    0.001340
     49          6           0      -15.396340   -0.748223    0.001289
     50          7           0      -14.435756   -1.635444    0.001270
     51          6           0      -13.257419   -0.906772    0.001230
     52          6           0      -11.949270   -1.388851    0.001185
     53          1           0      -11.717800   -2.442893    0.001174
     54          6           0      -10.960741   -0.416573    0.001150
     55          6           0      -11.232405    0.977332    0.001161
     56          6           0      -12.542574    1.458715    0.001205
     57          1           0      -12.771147    2.513424    0.001209
     58          6           0      -13.528448    0.485959    0.001237
     59          7           0      -14.924989    0.569290    0.001272
     60          6           0      -15.720320    1.723113    0.001274
     61          8           0      -15.209318    2.832511    0.001318
     62          6           0      -16.813940   -0.982240    0.001333
     63          6           0      -17.670227    0.143201    0.001358
     64          6           0      -19.086714   -0.058333    0.001404
     65          6           0       -5.093227   -2.326573    0.000937
     66          1           0       -4.412827   -3.169040    0.000907
     67          6           0       -6.448562   -2.502296    0.000986
     68          1           0       -6.878455   -3.497789    0.000995
     69          6           0       -7.346467   -1.410584    0.001015
     70          6           0       -8.768052   -1.666823    0.001045
     71          8           0       -9.303611   -2.767238    0.001121
     72          7           0       -9.568138   -0.499531    0.001091
     73          6           0       -9.098202    0.812161    0.001078
     74          7           0      -10.057631    1.704482    0.001118
     75          6           0       -7.677191    1.042493    0.001027
     76          6           0       -7.143859    2.336549    0.001010
     77          1           0       -7.834139    3.172263    0.001035
     78          6           0       -5.780212    2.532007    0.000964
     79          1           0       -5.348677    3.525155    0.000951
     80          6           0       -4.906797    1.433629    0.000935
     81          6           0       -3.160830   -0.775796    0.000855
     82          7           0       -2.153677   -1.661338    0.000793
     83          6           0       -1.018594   -0.950769    0.000738
     84          6           0        0.315678   -1.431878    0.000658
     85          1           0        0.545193   -2.486090    0.000634
     86          6           0        1.284499   -0.466061    0.000606
     87          6           0        1.018585    0.950837    0.000629
     88          6           0       -0.315685    1.431949    0.000710
     89          1           0       -0.545201    2.486160    0.000732
     90          6           0       -1.284508    0.466132    0.000759
     91          7           0       -2.679427    0.544658    0.000841
     92          6           0       -3.460362    1.692574    0.000893
     93          8           0       -2.954467    2.806021    0.000837
     94          6           0       -4.537540   -1.018656    0.000918
     95          6           0       -5.413649    0.117128    0.000952
     96          6           0       -6.828183   -0.088416    0.000999
     97          6           0        7.143853   -2.336481    0.000186
     98          1           0        7.834129   -3.172198    0.000111
     99          6           0        5.780201   -2.531937    0.000289
    100          1           0        5.348665   -3.525084    0.000301
    101          6           0        4.906793   -1.433561    0.000361
    102          6           0        3.460352   -1.692503    0.000444
    103          8           0        2.954462   -2.805951    0.000499
    104          7           0        2.679419   -0.544589    0.000509
    105          6           0        3.160823    0.775869    0.000487
    106          7           0        2.153673    1.661406    0.000572
    107          6           0        4.537539    1.018727    0.000399
    108          6           0        5.093228    2.326639    0.000371
    109          1           0        4.412831    3.169109    0.000423
    110          6           0        6.448567    2.502360    0.000292
    111          1           0        6.878461    3.497853    0.000286
    112          6           0        7.346467    1.410649    0.000238
    113          6           0        9.098201   -0.812101    0.000016
    114          7           0       10.057624   -1.704423   -0.000142
    115          7           0        9.568139    0.499592    0.000015
    116          6           0        8.768058    1.666883    0.000194
    117          8           0        9.303615    2.767297   -0.000047
    118          6           0        7.677185   -1.042431    0.000167
    119          6           0        6.828179    0.088482    0.000250
    120          6           0        5.413647   -0.117059    0.000339
    121          6           0      -35.739706    0.939995    0.001999
    122          6           0      -37.073038    1.360998    0.002013
    123          6           0      -38.069451    0.397496    0.002028
    124          6           0      -37.762477   -0.970668    0.002031
    125          6           0      -36.445168   -1.414196    0.002019
    126          6           0      -35.453329   -0.442038    0.002001
    127          1           0      -37.301997    2.420716    0.002010
    128          1           0      -39.110524    0.706775    0.002037
    129          1           0      -38.567192   -1.698665    0.002042
    130          1           0      -36.178893   -2.461386    0.002019
    131          6           0       10.960743    0.416629   -0.000206
    132          6           0       11.949277    1.388901   -0.000321
    133          6           0       11.232403   -0.977277   -0.000291
    134          6           0       13.257424    0.906816   -0.000539
    135          6           0       12.542568   -1.458667   -0.000507
    136          1           0       11.717815    2.442946   -0.000246
    137          6           0       13.528447   -0.485915   -0.000627
    138          7           0       14.435764    1.635483   -0.000695
    139          6           0       15.396345    0.748256   -0.000872
    140          6           0       17.348791    2.282964   -0.001102
    141          7           0       14.924987   -0.569253   -0.000855
    142          6           0       16.813946    0.982265   -0.001069
    143          6           0       15.720312   -1.723083   -0.001036
    144          6           0       18.709318    2.475896   -0.001280
    145          6           0       17.670225   -0.143182   -0.001217
    146          8           0       15.209299   -2.832477   -0.000904
    147          1           0       12.771136   -2.513378   -0.000581
    148          6           0       17.157706   -1.466393   -0.001190
    149          1           0       16.658570    3.118080   -0.000981
    150          6           0       19.597839    1.382687   -0.001430
    151          6           0       19.086714    0.058343   -0.001397
    152          6           0       18.040534   -2.560761   -0.001329
    153          6           0       21.027180    1.638135   -0.001614
    154          8           0       21.555487    2.741896   -0.001649
    155          1           0       19.135060    3.472225   -0.001308
    156          6           0       19.939525   -1.070165   -0.001539
    157          6           0       19.401873   -2.371172   -0.001500
    158          6           0       21.353242   -0.839288   -0.001721
    159          7           0       21.822496    0.476242   -0.001749
    160          6           0       23.215212    0.396747   -0.001939
    161          6           0       24.197924    1.372372   -0.002046
    162          1           0       17.610625   -3.555251   -0.001307
    163          7           0       22.319965   -1.729009   -0.001878
    164          6           0       23.489805   -0.997718   -0.002017
    165          6           0       25.507583    0.894190   -0.002243
    166          6           0       24.801184   -1.473289   -0.002214
    167          1           0       20.089495   -3.208491   -0.001614
    168          1           0       23.962043    2.425460   -0.001983
    169          6           0       25.783354   -0.495197   -0.002323
    170          7           0       26.685158    1.628273   -0.002387
    171          6           0       27.646222    0.746772   -0.002548
    172          6           0       29.587632    2.294015   -0.002769
    173          7           0       27.180921   -0.573246   -0.002527
    174          6           0       29.064516    0.990423   -0.002738
    175          6           0       27.982364   -1.719912   -0.002682
    176          6           0       30.946430    2.498044   -0.002949
    177          6           0       29.927852   -0.128434   -0.002888
    178          8           0       27.485670   -2.833752   -0.002613
    179          1           0       25.032085   -2.527414   -0.002280
    180          6           0       29.421742   -1.454133   -0.002858
    181          1           0       28.890097    3.122947   -0.002649
    182          6           0       31.843176    1.410148   -0.003104
    183          6           0       31.342152    0.081535   -0.003072
    184          6           0       30.307462   -2.544169   -0.003005
    185          6           0       33.265830    1.674132   -0.003298
    186          8           0       33.799603    2.777307   -0.003309
    187          1           0       31.363968    3.497702   -0.002979
    188          6           0       32.200088   -1.044694   -0.003217
    189          6           0       31.667768   -2.349724   -0.003180
    190          6           0       33.606723   -0.805884   -0.003394
    191          7           0       34.065520    0.512308   -0.003423
    192          6           0       35.453329    0.441929   -0.003601
    193          6           0       36.445186    1.414088   -0.003705
    194          1           0       29.880544   -3.539921   -0.002978
    195          7           0       34.589591   -1.688850   -0.003542
    196          6           0       35.739705   -0.940079   -0.003670
    197          6           0       37.762475    0.970576   -0.003884
    198          6           0       37.073054   -1.361096   -0.003850
    199          1           0       32.357839   -3.184922   -0.003294
    200          1           0       36.178889    2.461277   -0.003648
    201          6           0       38.069457   -0.397599   -0.003955
    202          1           0       37.301956   -2.420826   -0.003905
    203          1           0       38.567185    1.698510   -0.003971
    204          1           0       39.110507   -0.706938   -0.004096
 ---------------------------------------------------------------------

 SCF Done:  E(UwB97XD) =  -7043.37832686     A.U. after    1 cycles

 Alpha virt. eigenvalues --    2.75904   2.75905   2.76501   2.77040   2.77248
 Alpha virt. eigenvalues --    2.77324   2.77626   2.77651   2.77751   2.77761
 Alpha virt. eigenvalues --    2.77830   2.78188   2.78231   2.78676   2.78722

  Beta  occ. eigenvalues --  -19.00705 -19.00705 -18.99859 -18.99859 -18.97319
  Beta  occ. eigenvalues --  -18.97319 -18.96988 -18.96988 -18.96414 -18.96413
  Beta  occ. eigenvalues --  -18.95428 -18.95428 -14.29517 -14.29517 -14.27297
  Beta  occ. eigenvalues --  -14.27296 -14.25673 -14.25672 -14.24718 -14.24717
  Beta  occ. eigenvalues --  -14.24160 -14.24160 -14.23869 -14.23869 -14.20914
  Beta  occ. eigenvalues --  -14.20914 -14.19141 -14.19140 -14.17154 -14.17153
  Beta  occ. eigenvalues --  -14.16745 -14.16745 -14.16419 -14.16419 -14.15878
  Beta  occ. eigenvalues --  -14.15878 -10.18849 -10.18849 -10.18032 -10.18032
  Beta  occ. eigenvalues --  -10.15692 -10.15692 -10.15497 -10.15497 -10.15161
  Beta  occ. eigenvalues --  -10.15160 -10.14414 -10.14414 -10.13727 -10.13727
  Beta  occ. eigenvalues --  -10.13669 -10.13669 -10.12979 -10.12979 -10.12043
  Beta  occ. eigenvalues --  -10.12043 -10.12040 -10.12040 -10.11077 -10.11076
  Beta  occ. eigenvalues --  -10.10588 -10.10588 -10.10495 -10.10495 -10.10401
  Beta  occ. eigenvalues --  -10.10401 -10.10251 -10.10251 -10.10127 -10.10127
  Beta  occ. eigenvalues --  -10.10018 -10.10018 -10.10005 -10.10005 -10.09788
  Beta  occ. eigenvalues --  -10.09787 -10.09142 -10.09142 -10.09104 -10.09104
  Beta  occ. eigenvalues --  -10.09003 -10.09002 -10.08795 -10.08795 -10.08392
  Beta  occ. eigenvalues --  -10.08391 -10.08355 -10.08355 -10.08196 -10.08196
  Beta  occ. eigenvalues --  -10.08132 -10.08132 -10.08073 -10.08073 -10.08057
  Beta  occ. eigenvalues --  -10.08057 -10.08044 -10.08044 -10.07825 -10.07825
  Beta  occ. eigenvalues --  -10.07794 -10.07793 -10.07511 -10.07511 -10.07240
  Beta  occ. eigenvalues --  -10.07240 -10.07163 -10.07162 -10.06997 -10.06997
  Beta  occ. eigenvalues --  -10.06508 -10.06506 -10.06218 -10.06218 -10.06044
  Beta  occ. eigenvalues --  -10.06044 -10.06029 -10.06029 -10.05828 -10.05828
  Beta  occ. eigenvalues --  -10.05767 -10.05767 -10.05736 -10.05736 -10.05701
  Beta  occ. eigenvalues --  -10.05701 -10.05625 -10.05625 -10.05185 -10.05185
  Beta  occ. eigenvalues --  -10.05146 -10.05146 -10.05120 -10.05119 -10.05118
  Beta  occ. eigenvalues --  -10.05118 -10.04997 -10.04997 -10.04964 -10.04964
  Beta  occ. eigenvalues --  -10.04934 -10.04934 -10.04869 -10.04868 -10.04759
  Beta  occ. eigenvalues --  -10.04759 -10.04422 -10.04422 -10.03876 -10.03875
  Beta  occ. eigenvalues --  -10.03834 -10.03834 -10.03667 -10.03667 -10.03570
  Beta  occ. eigenvalues --  -10.03569 -10.03562 -10.03560 -10.02822 -10.02822
  Beta  occ. eigenvalues --  -10.02811 -10.02810  -0.95479  -0.95479  -0.94064
  Beta  occ. eigenvalues --   -0.94064  -0.91857  -0.91857  -0.91264  -0.91263
  Beta  occ. eigenvalues --   -0.91004  -0.91004  -0.90818  -0.90738  -0.90098
  Beta  occ. eigenvalues --   -0.90097  -0.89250  -0.89250  -0.87327  -0.87327
  Beta  occ. eigenvalues --   -0.86563  -0.86562  -0.86129  -0.85854  -0.85703
  Beta  occ. eigenvalues --   -0.85702  -0.79668  -0.79668  -0.78448  -0.78448
  Beta  occ. eigenvalues --   -0.77172  -0.77172  -0.76310  -0.76310  -0.76009
  Beta  occ. eigenvalues --   -0.76008  -0.75260  -0.75206  -0.75169  -0.75079
  Beta  occ. eigenvalues --   -0.74392  -0.74388  -0.74340  -0.74245  -0.73558
  Beta  occ. eigenvalues --   -0.73507  -0.72751  -0.72751  -0.71821  -0.71820
  Beta  occ. eigenvalues --   -0.70566  -0.70514  -0.70137  -0.69891  -0.69468
  Beta  occ. eigenvalues --   -0.69000  -0.68876  -0.68254  -0.67854  -0.67342
  Beta  occ. eigenvalues --   -0.67170  -0.66328  -0.66235  -0.66184  -0.65507
  Beta  occ. eigenvalues --   -0.65277  -0.65030  -0.64239  -0.64238  -0.63414
  Beta  occ. eigenvalues --   -0.63411  -0.62254  -0.62157  -0.61910  -0.61786
  Beta  occ. eigenvalues --   -0.61273  -0.61100  -0.61045  -0.60953  -0.60657
  Beta  occ. eigenvalues --   -0.60280  -0.60147  -0.59917  -0.59689  -0.59348
  Beta  occ. eigenvalues --   -0.59346  -0.57891  -0.57719  -0.57415  -0.57393
  Beta  occ. eigenvalues --   -0.56854  -0.56689  -0.56339  -0.54874  -0.54456
  Beta  occ. eigenvalues --   -0.54360  -0.54287  -0.53784  -0.53480  -0.53132
  Beta  occ. eigenvalues --   -0.53098  -0.53043  -0.52345  -0.51756  -0.51687
  Beta  occ. eigenvalues --   -0.51289  -0.50297  -0.50183  -0.49990  -0.49942
  Beta  occ. eigenvalues --   -0.49786  -0.49694  -0.49281  -0.49207  -0.49004
  Beta  occ. eigenvalues --   -0.48986  -0.48324  -0.48245  -0.47665  -0.47545
  Beta  occ. eigenvalues --   -0.47162  -0.47076  -0.46679  -0.46674  -0.46643
  Beta  occ. eigenvalues --   -0.46601  -0.46415  -0.45103  -0.44846  -0.44738
  Beta  occ. eigenvalues --   -0.44598  -0.44558  -0.44190  -0.44106  -0.43744
  Beta  occ. eigenvalues --   -0.43733  -0.43319  -0.41872  -0.41839  -0.41394
  Beta  occ. eigenvalues --   -0.41375  -0.41151  -0.41096  -0.40693  -0.40555
  Beta  occ. eigenvalues --   -0.40249  -0.40114  -0.40056  -0.39732  -0.39541
  Beta  occ. eigenvalues --   -0.38926  -0.38803  -0.38555  -0.37886  -0.37729
  Beta  occ. eigenvalues --   -0.37686  -0.37558  -0.37504  -0.37305  -0.36627
  Beta  occ. eigenvalues --   -0.36572  -0.36572  -0.36536  -0.36462  -0.36360
  Beta  occ. eigenvalues --   -0.36274  -0.35927  -0.35371  -0.35352  -0.34903
  Beta  occ. eigenvalues --   -0.34776  -0.34605  -0.34596  -0.34596  -0.34506
  Beta  occ. eigenvalues --   -0.34030  -0.33688  -0.33673  -0.33558  -0.33451
  Beta  occ. eigenvalues --   -0.33080  -0.33044  -0.32850  -0.32727  -0.32727
  Beta  occ. eigenvalues --   -0.32686  -0.32516  -0.32316  -0.32180  -0.32040
  Beta  occ. eigenvalues --   -0.32015  -0.32010  -0.31883  -0.31721  -0.31584
  Beta  occ. eigenvalues --   -0.31338  -0.31262  -0.31196  -0.31030  -0.30934
  Beta  occ. eigenvalues --   -0.30883  -0.30777  -0.30600  -0.30406  -0.30238
  Beta  occ. eigenvalues --   -0.30184  -0.29900  -0.29871  -0.29773  -0.29531
  Beta  occ. eigenvalues --   -0.29502  -0.29404  -0.29189  -0.29189  -0.29113
  Beta  occ. eigenvalues --   -0.29113  -0.28872  -0.28843  -0.28338  -0.28195
  Beta  occ. eigenvalues --   -0.28008  -0.27891  -0.27722  -0.27517  -0.27489
  Beta  occ. eigenvalues --   -0.27412  -0.27379  -0.27379  -0.27377  -0.27233
  Beta  occ. eigenvalues --   -0.27055  -0.26992  -0.26980  -0.26707  -0.26700
  Beta  occ. eigenvalues --   -0.26649  -0.26515  -0.26513  -0.26267  -0.26203
  Beta  occ. eigenvalues --   -0.26101  -0.26015  -0.26015  -0.25886  -0.25826
  Beta  occ. eigenvalues --   -0.25716  -0.25700  -0.25341  -0.25329  -0.25285
  Beta  occ. eigenvalues --   -0.25205  -0.24960  -0.24796  -0.24718  -0.24623
  Beta  occ. eigenvalues --   -0.24617  -0.24409  -0.24335  -0.24197  -0.23996
  Beta  occ. eigenvalues --   -0.23959  -0.23902  -0.23818  -0.23664  -0.23648
  Beta  occ. eigenvalues --   -0.23599  -0.23490  -0.23382  -0.23221  -0.23114
  Beta  occ. eigenvalues --   -0.23009  -0.22880  -0.22874  -0.22846  -0.22843
  Beta  occ. eigenvalues --   -0.22661  -0.22502  -0.22235  -0.22208  -0.22017
  Beta  occ. eigenvalues --   -0.21814  -0.21729  -0.20939  -0.20939  -0.20798
  Beta  occ. eigenvalues --   -0.20794  -0.19879  -0.19857  -0.19373  -0.19297
  Beta  occ. eigenvalues --   -0.19157  -0.18969  -0.18967  -0.18704  -0.18527
  Beta  occ. eigenvalues --   -0.17907  -0.17820  -0.17820  -0.17415  -0.17135
  Beta  occ. eigenvalues --   -0.16822  -0.16648  -0.16596  -0.16575  -0.16541
  Beta  occ. eigenvalues --   -0.16541  -0.15982  -0.15761  -0.15406  -0.15401
  Beta  occ. eigenvalues --   -0.15104  -0.14981  -0.14756  -0.14756  -0.14675
  Beta  occ. eigenvalues --   -0.14515  -0.14363  -0.14363  -0.13805  -0.13798
  Beta  occ. eigenvalues --   -0.12966  -0.12966  -0.12869  -0.12865  -0.12662
  Beta  occ. eigenvalues --   -0.12596  -0.12574  -0.12574  -0.12331  -0.12319
  Beta  occ. eigenvalues --   -0.12228  -0.12228  -0.12171  -0.11835  -0.11824
  Beta  occ. eigenvalues --   -0.11777  -0.11576  -0.11225  -0.11011  -0.11010
  Beta  occ. eigenvalues --   -0.10933  -0.10932  -0.10785  -0.10691  -0.10056
  Beta  occ. eigenvalues --   -0.10055  -0.10012  -0.09948  -0.09849  -0.08942
  Beta  occ. eigenvalues --   -0.08936  -0.08894  -0.08893  -0.08521  -0.08428
  Beta  occ. eigenvalues --   -0.08039  -0.07600  -0.07055  -0.06459  -0.06249
  Beta  occ. eigenvalues --   -0.05984  -0.05594  -0.05040  -0.04849  -0.04286
  Beta  occ. eigenvalues --   -0.04236  -0.03133  -0.02920  -0.01385  -0.00962
  Beta  occ. eigenvalues --    0.01052   0.08361
  Beta virt. eigenvalues --    0.16328   0.16335   0.17188   0.19631   0.19736
  Beta virt. eigenvalues --    0.22489   0.22495   0.24920   0.25132   0.25215
  Beta virt. eigenvalues --    0.25445   0.25877   0.25954   0.25987   0.26769

 Mulliken charges and spin densities:
               1          2
     1  C   -0.034910  -0.021208
     2  H    0.095387   0.000385
     3  C   -0.062937   0.137318
     4  H    0.090199  -0.007099
     5  C   -0.306322   0.046607
     6  C    0.512639   0.043286
     7  O   -0.408926   0.084697
     8  N   -0.581082  -0.021978
     9  C    0.524209   0.018188
    10  N   -0.397125   0.073314
    11  C   -0.313908   0.076569
    12  C   -0.041146   0.122186
    13  H    0.084138  -0.006177
    14  C   -0.059838   0.002422
    15  H    0.095145  -0.000776
    16  C   -0.309463   0.185197
    17  C    0.521067  -0.046769
    18  N   -0.381308   0.105454
    19  C   -0.043995  -0.006822
    20  C   -0.058096   0.018424
    21  H    0.126197  -0.001206
    22  C    0.224055   0.006512
    23  C   -0.029577   0.004750
    24  C   -0.067639   0.011744
    25  H    0.120600  -0.000935
    26  C    0.230219   0.013640
    27  N   -0.598231  -0.016109
    28  C    0.531216   0.005727
    29  O   -0.381545   0.083883
    30  C   -0.297673   0.186352
    31  C    0.141534  -0.082439
    32  C    0.158004  -0.027591
    33  C   -0.039383   0.015162
    34  H    0.090449  -0.001282
    35  C   -0.063080   0.101768
    36  H    0.089052  -0.005423
    37  C   -0.309643   0.087286
    38  C    0.517012   0.031038
    39  O   -0.400985   0.082694
    40  N   -0.593073  -0.020401
    41  C    0.527186   0.002435
    42  N   -0.395865   0.081855
    43  C   -0.314381   0.109422
    44  C   -0.039619   0.081843
    45  H    0.086393  -0.004315
    46  C   -0.063152   0.039995
    47  H    0.091217  -0.002542
    48  C   -0.308729   0.149728
    49  C    0.521222  -0.042798
    50  N   -0.386717   0.107203
    51  C   -0.038203  -0.033285
    52  C   -0.063658   0.044770
    53  H    0.123939  -0.002165
    54  C    0.225862  -0.020041
    55  C   -0.034957   0.030354
    56  C   -0.066144  -0.028851
    57  H    0.120629   0.001051
    58  C    0.227113   0.030467
    59  N   -0.596119  -0.019528
    60  C    0.524860   0.015799
    61  O   -0.390092   0.084800
    62  C   -0.302541   0.164041
    63  C    0.145286  -0.070085
    64  C    0.154661  -0.042289
    65  C   -0.063862   0.001860
    66  H    0.082012  -0.000100
    67  C   -0.050887  -0.000775
    68  H    0.087759   0.000027
    69  C   -0.329873   0.002763
    70  C    0.515833  -0.000886
    71  O   -0.405575  -0.000907
    72  N   -0.592902   0.001634
    73  C    0.526169   0.011424
    74  N   -0.392450  -0.007574
    75  C   -0.311400  -0.004519
    76  C   -0.025499   0.003400
    77  H    0.089928  -0.000155
    78  C   -0.074968  -0.002196
    79  H    0.091042   0.000085
    80  C   -0.289980   0.002939
    81  C    0.488525   0.001601
    82  N   -0.365370   0.001307
    83  C   -0.030411   0.000317
    84  C   -0.065647   0.002081
    85  H    0.125616  -0.000101
    86  C    0.227174  -0.000719
    87  C   -0.030415   0.000317
    88  C   -0.065645   0.002081
    89  H    0.125617  -0.000101
    90  C    0.227172  -0.000719
    91  N   -0.593729   0.000362
    92  C    0.524089  -0.000576
    93  O   -0.394502   0.000018
    94  C   -0.273162   0.000426
    95  C    0.128186  -0.000736
    96  C    0.156695   0.001450
    97  C   -0.025498   0.003401
    98  H    0.089930  -0.000156
    99  C   -0.074966  -0.002196
   100  H    0.091044   0.000085
   101  C   -0.289980   0.002940
   102  C    0.524093  -0.000576
   103  O   -0.394498   0.000019
   104  N   -0.593730   0.000362
   105  C    0.488521   0.001601
   106  N   -0.365367   0.001307
   107  C   -0.273155   0.000427
   108  C   -0.063862   0.001860
   109  H    0.082014  -0.000100
   110  C   -0.050885  -0.000775
   111  H    0.087761   0.000027
   112  C   -0.329872   0.002762
   113  C    0.526169   0.011424
   114  N   -0.392447  -0.007574
   115  N   -0.592904   0.001634
   116  C    0.515835  -0.000886
   117  O   -0.405570  -0.000907
   118  C   -0.311395  -0.004519
   119  C    0.156695   0.001450
   120  C    0.128184  -0.000737
   121  C   -0.013665  -0.021349
   122  C   -0.117062   0.033391
   123  C   -0.120803  -0.022364
   124  C   -0.147763   0.036700
   125  C   -0.063265  -0.021937
   126  C    0.206997   0.028812
   127  H    0.081519  -0.001727
   128  H    0.070500   0.001029
   129  H    0.074498  -0.001938
   130  H    0.126780   0.000682
   131  C    0.225865  -0.020041
   132  C   -0.063658   0.044769
   133  C   -0.034959   0.030354
   134  C   -0.038202  -0.033284
   135  C   -0.066141  -0.028850
   136  H    0.123939  -0.002165
   137  C    0.227112   0.030466
   138  N   -0.386718   0.107199
   139  C    0.521223  -0.042794
   140  C   -0.039382   0.015168
   141  N   -0.596119  -0.019528
   142  C   -0.302542   0.164035
   143  C    0.524860   0.015800
   144  C   -0.063080   0.101763
   145  C    0.145287  -0.070082
   146  O   -0.390092   0.084801
   147  H    0.120631   0.001051
   148  C   -0.308729   0.149724
   149  H    0.090449  -0.001282
   150  C   -0.309642   0.087291
   151  C    0.154661  -0.042292
   152  C   -0.063151   0.040000
   153  C    0.517013   0.031037
   154  O   -0.400984   0.082694
   155  H    0.089052  -0.005423
   156  C   -0.314380   0.109427
   157  C   -0.039619   0.081838
   158  C    0.527186   0.002433
   159  N   -0.593073  -0.020401
   160  C    0.224056   0.006513
   161  C   -0.058096   0.018424
   162  H    0.091217  -0.002542
   163  N   -0.395864   0.081856
   164  C   -0.029578   0.004750
   165  C   -0.043994  -0.006822
   166  C   -0.067638   0.011745
   167  H    0.086393  -0.004315
   168  H    0.126197  -0.001206
   169  C    0.230218   0.013639
   170  N   -0.381309   0.105455
   171  C    0.521067  -0.046769
   172  C   -0.034910  -0.021208
   173  N   -0.598231  -0.016109
   174  C   -0.297674   0.186353
   175  C    0.531216   0.005728
   176  C   -0.062938   0.137318
   177  C    0.141534  -0.082439
   178  O   -0.381544   0.083882
   179  H    0.120600  -0.000935
   180  C   -0.309462   0.185193
   181  H    0.095387   0.000385
   182  C   -0.306318   0.046609
   183  C    0.158003  -0.027591
   184  C   -0.059838   0.002424
   185  C    0.512637   0.043287
   186  O   -0.408928   0.084699
   187  H    0.090199  -0.007099
   188  C   -0.313906   0.076569
   189  C   -0.041146   0.122183
   190  C    0.524202   0.018186
   191  N   -0.581078  -0.021979
   192  C    0.207004   0.028813
   193  C   -0.063269  -0.021936
   194  H    0.095145  -0.000776
   195  N   -0.397126   0.073314
   196  C   -0.013677  -0.021349
   197  C   -0.147752   0.036698
   198  C   -0.117060   0.033387
   199  H    0.084139  -0.006177
   200  H    0.126780   0.000681
   201  C   -0.120808  -0.022363
   202  H    0.081520  -0.001726
   203  H    0.074503  -0.001938
   204  H    0.070500   0.001028
 Sum of Mulliken charges =  -6.00000   4.00000

 Dipole moment (field-independent basis, Debye):
    X=              0.0027    Y=             -0.0000    Z=             -0.0004  Tot=              0.0027
 Quadrupole moment (field-independent basis, Debye-Ang):
   XX=         -15142.4892   YY=          -1091.2421   ZZ=           -936.7154
   XY=            -32.8357   XZ=              1.1028   YZ=              0.0021

 Normal termination of Gaussian 16 at Sat Apr 13 09:28:11 2024.
