 Gaussian 16, Revision C.01,
 Gaussian 16:  ES64L-G16RevC.01  3-Jul-2019

 ----------------------------------------------------
 #p wB97XD/6-311(d,p) Geom=AllCheck guess=read stable
 ----------------------------------------------------

 Structure from the checkpoint file:  "checkpoint.chk"
 ---
 002
 ---
 Charge = -6 Multiplicity = 1

                         Standard orientation:
 ---------------------------------------------------------------------
 Center     Atomic      Atomic             Coordinates (Angstroms)
 Number     Number       Type             X           Y           Z
 ---------------------------------------------------------------------
      1          6           0        5.142371    0.509738   -0.000298
      2          1           0        4.518988    1.395413   -0.000351
      3          6           0        6.515672    0.599216   -0.000310
      4          1           0        7.016876    1.559697   -0.000377
      5          6           0        7.311930   -0.558243   -0.000240
      6          6           0        8.763787   -0.413284   -0.000267
      7          8           0        9.371118    0.645830   -0.000284
      8          7           0        9.463917   -1.631866   -0.000162
      9          6           0        8.888611   -2.909651   -0.000072
     10          7           0        9.786328   -3.871244    0.000007
     11          6           0        7.468596   -3.029177   -0.000073
     12          6           0        6.828280   -4.285417    0.000011
     13          1           0        7.450634   -5.172585    0.000073
     14          6           0        5.460430   -4.377982    0.000018
     15          1           0        4.958040   -5.337460    0.000082
     16          6           0        4.662828   -3.213839   -0.000057
     17          6           0        3.245216   -3.278491   -0.000052
     18          7           0        2.477978   -4.351745    0.000014
     19          6           0        1.186615   -3.889317   -0.000014
     20          6           0        0.000001   -4.618640    0.000031
     21          1           0       -0.000025   -5.700489    0.000100
     22          6           0       -1.186572   -3.889264   -0.000016
     23          6           0       -1.162389   -2.463225   -0.000108
     24          6           0        0.000041   -1.702484   -0.000157
     25          1           0        0.000081   -0.625119   -0.000227
     26          6           0        1.162451   -2.463258   -0.000106
     27          7           0        2.506340   -2.091999   -0.000125
     28          6           0        3.042223   -0.793622   -0.000199
     29          8           0        2.315866    0.182832   -0.000278
     30          6           0        4.509158   -0.744132   -0.000214
     31          6           0        5.275794   -1.929726   -0.000142
     32          6           0        6.703779   -1.838988   -0.000153
     33          6           0       -6.515682    0.599227   -0.000201
     34          1           0       -7.016864    1.559719   -0.000239
     35          6           0       -5.142340    0.509740   -0.000230
     36          1           0       -4.518966    1.395422   -0.000295
     37          6           0       -4.509165   -0.744089   -0.000179
     38          6           0       -3.042167   -0.793593   -0.000226
     39          8           0       -2.315890    0.182894   -0.000236
     40          7           0       -2.506293   -2.091934   -0.000131
     41          6           0       -3.245175   -3.278427   -0.000048
     42          7           0       -2.477977   -4.351664    0.000014
     43          6           0       -4.662819   -3.213789   -0.000036
     44          6           0       -5.460398   -4.377896    0.000043
     45          1           0       -4.958024   -5.337383    0.000089
     46          6           0       -6.828283   -4.285331    0.000062
     47          1           0       -7.450615   -5.172514    0.000123
     48          6           0       -7.468588   -3.029133    0.000009
     49          6           0       -8.888631   -2.909598    0.000028
     50          7           0       -9.786320   -3.871174    0.000088
     51          6           0      -11.004517   -3.234701    0.000075
     52          6           0      -12.273850   -3.804228    0.000121
     53          1           0      -12.416445   -4.876709    0.000174
     54          6           0      -13.345872   -2.922917    0.000095
     55          6           0      -13.152897   -1.523197    0.000026
     56          6           0      -11.901251   -0.918086   -0.000021
     57          1           0      -11.752889    0.149448   -0.000073
     58          6           0      -10.845492   -1.820484    0.000005
     59          7           0       -9.463934   -1.631808   -0.000025
     60          6           0       -8.763809   -0.413240   -0.000093
     61          8           0       -9.371096    0.645877   -0.000153
     62          6           0       -7.311910   -0.558196   -0.000122
     63          6           0       -6.703762   -1.838945   -0.000070
     64          6           0       -5.275805   -1.929683   -0.000096
     65          6           0      -18.190354    2.089242   -0.000093
     66          1           0      -18.577944    3.100793   -0.000141
     67          6           0      -16.807311    1.843792   -0.000091
     68          1           0      -16.097665    2.662490   -0.000136
     69          6           0      -16.323015    0.556211   -0.000033
     70          6           0      -14.845179    0.341444   -0.000030
     71          8           0      -14.042939    1.245393   -0.000093
     72          7           0      -14.454732   -0.993093    0.000020
     73          6           0      -15.321531   -2.093925    0.000081
     74          7           0      -14.704137   -3.230401    0.000129
     75          6           0      -16.756772   -1.875843    0.000086
     76          6           0      -17.659040   -2.919346    0.000144
     77          1           0      -17.276425   -3.933000    0.000188
     78          6           0      -19.037590   -2.674215    0.000145
     79          1           0      -19.748586   -3.491357    0.000192
     80          6           0      -19.521528   -1.381679    0.000087
     81          6           0      -20.940800   -1.085273    0.000090
     82          7           0      -21.911665   -1.940239    0.000135
     83          6           0      -23.084712   -1.189958    0.000123
     84          6           0      -24.393288   -1.656949    0.000163
     85          1           0      -24.619199   -2.715452    0.000209
     86          6           0      -25.403326   -0.693008    0.000141
     87          6           0      -25.059405    0.699397    0.000081
     88          6           0      -23.759622    1.186169    0.000039
     89          1           0      -23.549582    2.243493   -0.000008
     90          6           0      -22.786290    0.191728    0.000061
     91          7           0      -21.378183    0.246524    0.000038
     92          6           0      -20.553736    1.356575   -0.000049
     93          8           0      -20.975880    2.489523   -0.000079
     94          6           0      -19.086021    1.045869   -0.000037
     95          6           0      -18.615125   -0.290635    0.000025
     96          6           0      -17.224351   -0.538781    0.000026
     97          6           0      -29.531640    4.900901   -0.000046
     98          1           0      -29.809474    5.948672   -0.000090
     99          6           0      -28.238336    4.506830   -0.000039
    100          1           0      -27.422959    5.221025   -0.000076
    101          6           0      -27.890811    3.113484    0.000021
    102          6           0      -26.506283    2.749865    0.000029
    103          8           0      -25.535894    3.512643   -0.000038
    104          7           0      -26.283090    1.352777    0.000076
    105          6           0      -27.270314    0.360396    0.000130
    106          7           0      -26.750221   -0.871951    0.000169
    107          6           0      -28.622476    0.745361    0.000131
    108          6           0      -29.679027   -0.226533    0.000182
    109          1           0      -29.398687   -1.273644    0.000224
    110          6           0      -30.972529    0.167064    0.000176
    111          1           0      -31.788415   -0.546760    0.000214
    112          6           0      -31.309083    1.562804    0.000118
    113          6           0      -32.647479    1.998504    0.000109
    114          7           0      -33.771445    1.268021    0.000147
    115          6           0      -34.782273    2.177928    0.000114
    116          6           0      -36.170925    1.975664    0.000132
    117          1           0      -36.563703    0.964039    0.000178
    118          6           0      -37.008159    3.081933    0.000091
    119          1           0      -38.085628    2.933334    0.000104
    120          6           0      -36.498334    4.387769    0.000032
    121          1           0      -37.181284    5.232182    0.000001
    122          6           0      -35.123461    4.618107    0.000013
    123          1           0      -34.690278    5.608540   -0.000032
    124          6           0      -34.291333    3.508894    0.000055
    125          7           0      -32.908889    3.371508    0.000050
    126          6           0      -31.948855    4.406120   -0.000003
    127          8           0      -32.332157    5.583411   -0.000052
    128          6           0      -30.598050    3.938556    0.000007
    129          6           0      -30.296452    2.552841    0.000066
    130          6           0      -28.912474    2.132406    0.000073
    131          6           0       37.008163    3.081967    0.000309
    132          6           0       36.498332    4.387805    0.000249
    133          6           0       36.170934    1.975701    0.000332
    134          6           0       35.123462    4.618132    0.000178
    135          6           0       34.782274    2.177958    0.000262
    136          6           0       34.291331    3.508916    0.000191
    137          6           0       32.647477    1.998523    0.000200
    138          7           0       33.771451    1.268044    0.000289
    139          6           0       31.948849    4.406137    0.000043
    140          7           0       32.908886    3.371529    0.000140
    141          6           0       31.309083    1.562819    0.000177
    142          6           0       30.972529    0.167078    0.000244
    143          8           0       32.332149    5.583431   -0.000014
    144          6           0       30.598047    3.938570    0.000028
    145          6           0       30.296450    2.552855    0.000092
    146          6           0       29.679026   -0.226518    0.000226
    147          6           0       29.531634    4.900914   -0.000058
    148          6           0       28.912473    2.132417    0.000069
    149          6           0       28.622475    0.745374    0.000136
    150          6           0       28.238331    4.506839   -0.000080
    151          1           0       36.563700    0.964070    0.000368
    152          6           0       27.890808    3.113494   -0.000019
    153          6           0       27.270310    0.360406    0.000121
    154          6           0       26.506279    2.749873   -0.000054
    155          1           0       34.690260    5.608559    0.000137
    156          6           0       25.059399    0.699402    0.000042
    157          6           0       18.190340    2.089223   -0.000216
    158          6           0       23.759614    1.186167   -0.000024
    159          7           0       26.283086    1.352787    0.000031
    160          6           0       25.403323   -0.692999    0.000139
    161          6           0       20.553724    1.356563   -0.000116
    162          6           0       16.807297    1.843769   -0.000235
    163          8           0       25.535893    3.512654   -0.000085
    164          8           0       20.975873    2.489510   -0.000166
    165          7           0       26.750222   -0.871940    0.000186
    166          6           0       19.086013    1.045855   -0.000131
    167          6           0       22.786284    0.191723    0.000015
    168          6           0       24.393289   -1.656944    0.000175
    169          6           0       23.084712   -1.189960    0.000112
    170          6           0       16.323006    0.556188   -0.000169
    171          1           0       31.788415   -0.546746    0.000312
    172          6           0       18.615120   -0.290651   -0.000061
    173          6           0       20.940798   -1.085287    0.000047
    174          7           0       21.378176    0.246512   -0.000029
    175          6           0       14.845161    0.341416   -0.000195
    176          6           0       17.224347   -0.538799   -0.000080
    177          8           0       14.042937    1.245381   -0.000250
    178          6           0       19.521523   -1.381693    0.000029
    179          7           0       21.911665   -1.940249    0.000129
    180          1           0       29.809466    5.948686   -0.000106
    181          6           0       16.756764   -1.875860   -0.000007
    182          6           0       19.037583   -2.674228    0.000097
    183          1           0       29.398687   -1.273630    0.000278
    184          6           0       15.321520   -2.093939   -0.000022
    185          6           0       17.659033   -2.919362    0.000080
    186          7           0       14.454715   -0.993110   -0.000119
    187          1           0       27.422953    5.221033   -0.000148
    188          1           0       18.577925    3.100776   -0.000269
    189          1           0       23.549566    2.243490   -0.000098
    190          1           0       16.097647    2.662464   -0.000302
    191          7           0       14.704132   -3.230416    0.000045
    192          1           0       24.619206   -2.715446    0.000248
    193          1           0       19.748579   -3.491371    0.000166
    194          1           0       17.276417   -3.933016    0.000135
    195          6           0       10.845469   -1.820536   -0.000123
    196          6           0       11.004498   -3.234766   -0.000019
    197          6           0       11.901222   -0.918132   -0.000171
    198          6           0       13.152877   -1.523227   -0.000103
    199          6           0       13.345860   -2.922944   -0.000001
    200          6           0       12.273850   -3.804268    0.000043
    201          1           0       11.752835    0.149399   -0.000251
    202          1           0       12.416462   -4.876748    0.000122
    203          1           0       37.181284    5.232212    0.000212
    204          1           0       38.085637    2.933384    0.000346
 ---------------------------------------------------------------------

 SCF Done:  E(RwB97XD) =  -7043.29126304     A.U. after    1 cycles

 The electronic state is 1-A.
 Alpha  occ. eigenvalues --  -19.04388 -19.04385 -19.03112 -19.03109 -18.99873
 Alpha  occ. eigenvalues --  -18.99866 -18.99608 -18.99599 -18.93205 -18.93204
 Alpha  occ. eigenvalues --  -18.93123 -18.93122 -14.30693 -14.30689 -14.29235
 Alpha  occ. eigenvalues --  -14.29233 -14.27761 -14.27754 -14.26995 -14.26991
 Alpha  occ. eigenvalues --  -14.23340 -14.23338 -14.23175 -14.23174 -14.22911
 Alpha  occ. eigenvalues --  -14.22907 -14.21748 -14.21745 -14.18958 -14.18950
 Alpha  occ. eigenvalues --  -14.17761 -14.17756 -14.14253 -14.14252 -14.14226
 Alpha  occ. eigenvalues --  -14.14225 -10.22357 -10.22353 -10.21126 -10.21123
 Alpha  occ. eigenvalues --  -10.17704 -10.17697 -10.17681 -10.17672 -10.17245
 Alpha  occ. eigenvalues --  -10.17241 -10.15595 -10.15593 -10.13918 -10.13910
 Alpha  occ. eigenvalues --  -10.13268 -10.13265 -10.13174 -10.13171 -10.13064
 Alpha  occ. eigenvalues --  -10.13061 -10.13007 -10.13004 -10.12804 -10.12801
 Alpha  occ. eigenvalues --  -10.12769 -10.12766 -10.12446 -10.12440 -10.12426
 Alpha  occ. eigenvalues --  -10.12423 -10.12300 -10.12296 -10.12053 -10.12050
 Alpha  occ. eigenvalues --  -10.11795 -10.11792 -10.11621 -10.11614 -10.11560
 Alpha  occ. eigenvalues --  -10.11558 -10.11472 -10.11471 -10.11371 -10.11369
 Alpha  occ. eigenvalues --  -10.11171 -10.11166 -10.10442 -10.10441 -10.10246
 Alpha  occ. eigenvalues --  -10.10240 -10.09772 -10.09770 -10.09150 -10.09148
 Alpha  occ. eigenvalues --  -10.09045 -10.09044 -10.09019 -10.09012 -10.08929
 Alpha  occ. eigenvalues --  -10.08923 -10.08760 -10.08758 -10.08667 -10.08662
 Alpha  occ. eigenvalues --  -10.08259 -10.08257 -10.08190 -10.08188 -10.07787
 Alpha  occ. eigenvalues --  -10.07779 -10.07766 -10.07761 -10.07615 -10.07606
 Alpha  occ. eigenvalues --  -10.07527 -10.07519 -10.07219 -10.07211 -10.07066
 Alpha  occ. eigenvalues --  -10.07065 -10.06994 -10.06986 -10.06985 -10.06978
 Alpha  occ. eigenvalues --  -10.06926 -10.06925 -10.06801 -10.06793 -10.06531
 Alpha  occ. eigenvalues --  -10.06359 -10.06358 -10.06207 -10.06200 -10.05625
 Alpha  occ. eigenvalues --  -10.05624 -10.05561 -10.05560 -10.04803 -10.04802
 Alpha  occ. eigenvalues --  -10.04726 -10.04725 -10.04692 -10.04691 -10.04571
 Alpha  occ. eigenvalues --  -10.04570 -10.04322 -10.04146 -10.04144 -10.04092
 Alpha  occ. eigenvalues --  -10.04091 -10.01707 -10.01706 -10.01668 -10.01667
 Alpha  occ. eigenvalues --  -10.01514 -10.01513 -10.01438 -10.01437 -10.01206
 Alpha  occ. eigenvalues --  -10.01205 -10.01193 -10.01191 -10.01075 -10.01074
 Alpha  occ. eigenvalues --  -10.00999 -10.00998  -0.98471  -0.98467  -0.97125
 Alpha  occ. eigenvalues --   -0.97122  -0.94137  -0.94128  -0.93975  -0.93904
 Alpha  occ. eigenvalues --   -0.93090  -0.93086  -0.91523  -0.91521  -0.89538
 Alpha  occ. eigenvalues --   -0.89530  -0.88998  -0.88724  -0.88668  -0.88666
 Alpha  occ. eigenvalues --   -0.88498  -0.88496  -0.84024  -0.84023  -0.83819
 Alpha  occ. eigenvalues --   -0.83818  -0.82526  -0.82523  -0.80926  -0.80922
 Alpha  occ. eigenvalues --   -0.79592  -0.79590  -0.78187  -0.78131  -0.77389
 Alpha  occ. eigenvalues --   -0.77175  -0.76538  -0.76437  -0.76423  -0.76241
 Alpha  occ. eigenvalues --   -0.75353  -0.75341  -0.73559  -0.73538  -0.73266
 Alpha  occ. eigenvalues --   -0.73231  -0.73086  -0.73061  -0.72419  -0.71686
 Alpha  occ. eigenvalues --   -0.71685  -0.71270  -0.71090  -0.70787  -0.70728
 Alpha  occ. eigenvalues --   -0.70263  -0.70215  -0.69731  -0.68602  -0.67856
 Alpha  occ. eigenvalues --   -0.67822  -0.67789  -0.67712  -0.65628  -0.65626
 Alpha  occ. eigenvalues --   -0.65223  -0.65217  -0.64889  -0.64835  -0.64191
 Alpha  occ. eigenvalues --   -0.64055  -0.63221  -0.63201  -0.62993  -0.62948
 Alpha  occ. eigenvalues --   -0.61996  -0.61884  -0.61441  -0.61206  -0.61108
 Alpha  occ. eigenvalues --   -0.60646  -0.60314  -0.59919  -0.59682  -0.59674
 Alpha  occ. eigenvalues --   -0.58831  -0.58616  -0.57986  -0.57911  -0.57689
 Alpha  occ. eigenvalues --   -0.57427  -0.57194  -0.57141  -0.56624  -0.56584
 Alpha  occ. eigenvalues --   -0.55576  -0.55408  -0.54921  -0.54907  -0.54659
 Alpha  occ. eigenvalues --   -0.53835  -0.53609  -0.53418  -0.53392  -0.52816
 Alpha  occ. eigenvalues --   -0.52777  -0.52423  -0.51671  -0.51363  -0.50482
 Alpha  occ. eigenvalues --   -0.50360  -0.50142  -0.50132  -0.50060  -0.49689
 Alpha  occ. eigenvalues --   -0.49687  -0.49246  -0.48683  -0.48626  -0.47520
 Alpha  occ. eigenvalues --   -0.47406  -0.47314  -0.46820  -0.46589  -0.46216
 Alpha  occ. eigenvalues --   -0.46038  -0.45946  -0.45622  -0.45616  -0.45459
 Alpha  occ. eigenvalues --   -0.45433  -0.45129  -0.45045  -0.44137  -0.44055
 Alpha  occ. eigenvalues --   -0.43933  -0.43413  -0.43393  -0.43185  -0.42898
 Alpha  occ. eigenvalues --   -0.42864  -0.42377  -0.42335  -0.42186  -0.41935
 Alpha  occ. eigenvalues --   -0.41131  -0.41014  -0.40875  -0.40456  -0.40284
 Alpha  occ. eigenvalues --   -0.40240  -0.39509  -0.39454  -0.39196  -0.39059
 Alpha  occ. eigenvalues --   -0.38784  -0.38346  -0.38342  -0.38303  -0.38300
 Alpha  occ. eigenvalues --   -0.37898  -0.37879  -0.37170  -0.36904  -0.36872
 Alpha  occ. eigenvalues --   -0.36870  -0.36569  -0.36514  -0.35759  -0.35535
 Alpha  occ. eigenvalues --   -0.35465  -0.35460  -0.35264  -0.35207  -0.34991
 Alpha  occ. eigenvalues --   -0.34987  -0.34950  -0.34912  -0.34743  -0.34642
 Alpha  occ. eigenvalues --   -0.34585  -0.34577  -0.34458  -0.34293  -0.33864
 Alpha  occ. eigenvalues --   -0.33776  -0.33773  -0.33728  -0.33267  -0.33138
 Alpha  occ. eigenvalues --   -0.32803  -0.32609  -0.32474  -0.32406  -0.32065
 Alpha  occ. eigenvalues --   -0.31996  -0.31925  -0.31465  -0.31461  -0.31223
 Alpha  occ. eigenvalues --   -0.31221  -0.31112  -0.31091  -0.30922  -0.30917
 Alpha  occ. eigenvalues --   -0.30681  -0.30677  -0.30528  -0.30520  -0.30517
 Alpha  occ. eigenvalues --   -0.30504  -0.30476  -0.30419  -0.30352  -0.30349
 Alpha  occ. eigenvalues --   -0.30207  -0.30185  -0.30157  -0.30156  -0.29865
 Alpha  occ. eigenvalues --   -0.29389  -0.29375  -0.29257  -0.29056  -0.29052
 Alpha  occ. eigenvalues --   -0.29019  -0.29001  -0.28778  -0.28772  -0.28522
 Alpha  occ. eigenvalues --   -0.28460  -0.28282  -0.28022  -0.27923  -0.27918
 Alpha  occ. eigenvalues --   -0.27916  -0.27728  -0.27726  -0.27504  -0.27471
 Alpha  occ. eigenvalues --   -0.26830  -0.26680  -0.26641  -0.26135  -0.26100
 Alpha  occ. eigenvalues --   -0.25932  -0.25900  -0.25896  -0.25888  -0.25843
 Alpha  occ. eigenvalues --   -0.25840  -0.25718  -0.25663  -0.25589  -0.25334
 Alpha  occ. eigenvalues --   -0.24954  -0.24952  -0.24718  -0.24715  -0.24254
 Alpha  occ. eigenvalues --   -0.24250  -0.23985  -0.23983  -0.23899  -0.23680
 Alpha  occ. eigenvalues --   -0.23678  -0.23482  -0.23477  -0.23458  -0.23456
 Alpha  occ. eigenvalues --   -0.22844  -0.22838  -0.22288  -0.22287  -0.22119
 Alpha  occ. eigenvalues --   -0.21753  -0.21707  -0.21698  -0.21550  -0.21549
 Alpha  occ. eigenvalues --   -0.21304  -0.21303  -0.20774  -0.20614  -0.20610
 Alpha  occ. eigenvalues --   -0.20496  -0.20467  -0.20326  -0.20324  -0.19976
 Alpha  occ. eigenvalues --   -0.19975  -0.19786  -0.19778  -0.19621  -0.19607
 Alpha  occ. eigenvalues --   -0.18888  -0.18870  -0.18835  -0.18256  -0.18252
 Alpha  occ. eigenvalues --   -0.17943  -0.17940  -0.17793  -0.17222  -0.17172
 Alpha  occ. eigenvalues --   -0.17036  -0.16984  -0.16983  -0.16864  -0.16860
 Alpha  occ. eigenvalues --   -0.16750  -0.16557  -0.16555  -0.16516  -0.15807
 Alpha  occ. eigenvalues --   -0.15520  -0.15518  -0.15354  -0.15339  -0.14794
 Alpha  occ. eigenvalues --   -0.14757  -0.14655  -0.14285  -0.14261  -0.14259
 Alpha  occ. eigenvalues --   -0.14104  -0.13935  -0.13926  -0.13573  -0.13499
 Alpha  occ. eigenvalues --   -0.13115  -0.12933  -0.12930  -0.12916  -0.12903
 Alpha  occ. eigenvalues --   -0.12513  -0.12309  -0.12172  -0.12145  -0.11418
 Alpha  occ. eigenvalues --   -0.11373  -0.11149  -0.11147  -0.10419  -0.10417
 Alpha  occ. eigenvalues --   -0.10256  -0.10254  -0.10046  -0.10002  -0.08193
 Alpha  occ. eigenvalues --   -0.08181  -0.07898  -0.07455  -0.07454  -0.07378
 Alpha  occ. eigenvalues --   -0.07376  -0.07268  -0.07216  -0.07022  -0.06439
 Alpha  occ. eigenvalues --   -0.06438  -0.05634  -0.05632  -0.05298  -0.05297
 Alpha  occ. eigenvalues --   -0.04673  -0.04630  -0.04290  -0.02828  -0.00236
 Alpha  occ. eigenvalues --   -0.00234   0.06939   0.06941   0.07266
 Alpha virt. eigenvalues --    0.12640   0.13994   0.14005   0.20901   0.20974
 Alpha virt. eigenvalues --    0.22216   0.22220   0.22735   0.23213   0.23581
 Alpha virt. eigenvalues --    0.24325   0.25448   0.26112   0.26470   0.26601

 Mulliken charges:
               1
     1  C   -0.057613
     2  H    0.098678
     3  C   -0.052673
     4  H    0.097376
     5  C   -0.311522
     6  C    0.525965
     7  O   -0.386646
     8  N   -0.596514
     9  C    0.529262
    10  N   -0.399788
    11  C   -0.320275
    12  C   -0.032591
    13  H    0.088783
    14  C   -0.048613
    15  H    0.089916
    16  C   -0.292966
    17  C    0.512345
    18  N   -0.399037
    19  C   -0.007334
    20  C   -0.126873
    21  H    0.077006
    22  C   -0.007355
    23  C    0.215452
    24  C   -0.022075
    25  H    0.161228
    26  C    0.215451
    27  N   -0.595092
    28  C    0.534250
    29  O   -0.365124
    30  C   -0.308995
    31  C    0.145099
    32  C    0.157619
    33  C   -0.052648
    34  H    0.097405
    35  C   -0.057589
    36  H    0.098713
    37  C   -0.308978
    38  C    0.534298
    39  O   -0.365046
    40  N   -0.595109
    41  C    0.512340
    42  N   -0.398998
    43  C   -0.292905
    44  C   -0.048597
    45  H    0.089945
    46  C   -0.032565
    47  H    0.088809
    48  C   -0.320241
    49  C    0.529275
    50  N   -0.399756
    51  C   -0.013882
    52  C   -0.095201
    53  H    0.089863
    54  C   -0.028609
    55  C    0.214149
    56  C   -0.006418
    57  H    0.161234
    58  C    0.212695
    59  N   -0.596534
    60  C    0.526007
    61  O   -0.386581
    62  C   -0.311505
    63  C    0.157624
    64  C    0.145080
    65  C   -0.040067
    66  H    0.122553
    67  C   -0.032414
    68  H    0.120496
    69  C   -0.295057
    70  C    0.559261
    71  O   -0.333476
    72  N   -0.607623
    73  C    0.527675
    74  N   -0.368823
    75  C   -0.270046
    76  C   -0.016401
    77  H    0.110421
    78  C   -0.025999
    79  H    0.111322
    80  C   -0.248927
    81  C    0.511836
    82  N   -0.364098
    83  C   -0.028750
    84  C   -0.118690
    85  H    0.075667
    86  C   -0.001687
    87  C    0.201497
    88  C   -0.017944
    89  H    0.158442
    90  C    0.202346
    91  N   -0.600440
    92  C    0.557178
    93  O   -0.331073
    94  C   -0.287219
    95  C    0.133815
    96  C    0.150146
    97  C   -0.079743
    98  H    0.063506
    99  C   -0.076506
   100  H    0.068469
   101  C   -0.324664
   102  C    0.490701
   103  O   -0.443466
   104  N   -0.577055
   105  C    0.515401
   106  N   -0.422322
   107  C   -0.337832
   108  C   -0.058403
   109  H    0.064467
   110  C   -0.062372
   111  H    0.061707
   112  C   -0.331418
   113  C    0.508983
   114  N   -0.420605
   115  C   -0.004393
   116  C   -0.140491
   117  H    0.061415
   118  C   -0.121830
   119  H    0.049141
   120  C   -0.165249
   121  H    0.053242
   122  C   -0.072064
   123  H    0.117484
   124  C    0.191917
   125  N   -0.565418
   126  C    0.484362
   127  O   -0.460902
   128  C   -0.320797
   129  C    0.149194
   130  C    0.152983
   131  C   -0.121830
   132  C   -0.165250
   133  C   -0.140491
   134  C   -0.072065
   135  C   -0.004394
   136  C    0.191918
   137  C    0.508979
   138  N   -0.420607
   139  C    0.484360
   140  N   -0.565417
   141  C   -0.331414
   142  C   -0.062376
   143  O   -0.460907
   144  C   -0.320795
   145  C    0.149193
   146  C   -0.058402
   147  C   -0.079746
   148  C    0.152983
   149  C   -0.337834
   150  C   -0.076505
   151  H    0.061414
   152  C   -0.324667
   153  C    0.515400
   154  C    0.490701
   155  H    0.117483
   156  C    0.201496
   157  C   -0.040066
   158  C   -0.017945
   159  N   -0.577055
   160  C   -0.001689
   161  C    0.557175
   162  C   -0.032423
   163  O   -0.443466
   164  O   -0.331078
   165  N   -0.422324
   166  C   -0.287223
   167  C    0.202347
   168  C   -0.118693
   169  C   -0.028750
   170  C   -0.295052
   171  H    0.061704
   172  C    0.133824
   173  C    0.511839
   174  N   -0.600441
   175  C    0.559256
   176  C    0.150133
   177  O   -0.333478
   178  C   -0.248935
   179  N   -0.364104
   180  H    0.063504
   181  C   -0.270029
   182  C   -0.025998
   183  H    0.064466
   184  C    0.527659
   185  C   -0.016411
   186  N   -0.607615
   187  H    0.068468
   188  H    0.122548
   189  H    0.158440
   190  H    0.120493
   191  N   -0.368823
   192  H    0.075664
   193  H    0.111317
   194  H    0.110418
   195  C    0.212679
   196  C   -0.013865
   197  C   -0.006431
   198  C    0.214136
   199  C   -0.028609
   200  C   -0.095231
   201  H    0.161229
   202  H    0.089845
   203  H    0.053240
   204  H    0.049138
 Sum of Mulliken charges =  -6.00000

 Dipole moment (field-independent basis, Debye):
    X=             -0.0334    Y=            -22.1882    Z=             -0.0008  Tot=             22.1882
 Quadrupole moment (field-independent basis, Debye-Ang):
   XX=         -18439.3957   YY=          -1241.0711   ZZ=           -936.9325
   XY=              0.0204   XZ=             -0.0145   YZ=              0.0020

 Normal termination of Gaussian 16 at Sun Jan 21 17:17:01 2024.
