 Gaussian 16, Revision C.01,
 Gaussian 16:  ES64L-G16RevC.01  3-Jul-2019

 ----------------------------------------------------
 #p wB97XD/6-311(d,p) Geom=AllCheck guess=read stable
 ----------------------------------------------------

 Structure from the checkpoint file:  "checkpoint.chk"
 ---
 001
 ---
 Charge =  0 Multiplicity = 1

                         Standard orientation:
 ---------------------------------------------------------------------
 Center     Atomic      Atomic             Coordinates (Angstroms)
 Number     Number       Type             X           Y           Z
 ---------------------------------------------------------------------
      1          6           0        5.162874    0.534936    0.122409
      2          1           0        4.555142    1.431059    0.148787
      3          6           0        6.564427    0.616214    0.119856
      4          1           0        7.064511    1.576629    0.144319
      5          6           0        7.327472   -0.526794    0.085678
      6          6           0        8.812246   -0.392307    0.083042
      7          8           0        9.390712    0.664414    0.109889
      8          7           0        9.499080   -1.606422    0.045883
      9          6           0        8.917044   -2.877901    0.013790
     10          7           0        9.782624   -3.837373   -0.017824
     11          6           0        7.470009   -2.997576    0.017441
     12          6           0        6.843342   -4.224048   -0.013611
     13          1           0        7.450354   -5.120553   -0.040522
     14          6           0        5.444930   -4.305116   -0.010808
     15          1           0        4.945505   -5.265776   -0.035537
     16          6           0        4.680861   -3.159291    0.022976
     17          6           0        3.229737   -3.207748    0.025152
     18          7           0        2.481069   -4.261064   -0.002749
     19          6           0        1.174216   -3.790245    0.011726
     20          6           0        0.000003   -4.528323   -0.008400
     21          1           0        0.000005   -5.609215   -0.038540
     22          6           0       -1.174213   -3.790247    0.011710
     23          6           0       -1.156160   -2.375535    0.050668
     24          6           0       -0.000000   -1.609979    0.071894
     25          1           0       -0.000003   -0.532574    0.101261
     26          6           0        1.156160   -2.375533    0.050683
     27          7           0        2.504559   -2.012204    0.059201
     28          6           0        3.046582   -0.726749    0.093620
     29          8           0        2.349847    0.255969    0.122425
     30          6           0        4.536978   -0.688647    0.090869
     31          6           0        5.299278   -1.884241    0.055846
     32          6           0        6.708460   -1.802548    0.053116
     33          6           0       -6.564430    0.616206    0.119797
     34          1           0       -7.064519    1.576618    0.144259
     35          6           0       -5.162877    0.534932    0.122365
     36          1           0       -4.555146    1.431054    0.148755
     37          6           0       -4.536979   -0.688655    0.090823
     38          6           0       -3.046585   -0.726755    0.093589
     39          8           0       -2.349850    0.255961    0.122417
     40          7           0       -2.504560   -2.012209    0.059167
     41          6           0       -3.229733   -3.207752    0.025109
     42          7           0       -2.481065   -4.261067   -0.002784
     43          6           0       -4.680858   -3.159300    0.022916
     44          6           0       -5.444926   -4.305125   -0.010881
     45          1           0       -4.945504   -5.265784   -0.035609
     46          6           0       -6.843341   -4.224056   -0.013698
     47          1           0       -7.450346   -5.120562   -0.040620
     48          6           0       -7.470010   -2.997586    0.017352
     49          6           0       -8.917043   -2.877912    0.013690
     50          7           0       -9.782621   -3.837385   -0.017937
     51          6           0      -11.026258   -3.218346   -0.008292
     52          6           0      -12.278070   -3.815285   -0.033479
     53          1           0      -12.403298   -4.888879   -0.064368
     54          6           0      -13.358868   -2.946044   -0.017214
     55          6           0      -13.177066   -1.543017    0.022993
     56          6           0      -11.940036   -0.916733    0.049257
     57          1           0      -11.814953    0.153333    0.079654
     58          6           0      -10.880418   -1.811158    0.031764
     59          7           0       -9.499080   -1.606436    0.045787
     60          6           0       -8.812248   -0.392320    0.082945
     61          8           0       -9.390715    0.664402    0.109810
     62          6           0       -7.327473   -0.526804    0.085603
     63          6           0       -6.708460   -1.802556    0.053040
     64          6           0       -5.299279   -1.884249    0.055786
     65          6           0      -18.200457    2.056962    0.079510
     66          1           0      -18.585738    3.068901    0.103853
     67          6           0      -16.817990    1.813215    0.085190
     68          1           0      -16.110127    2.632474    0.113952
     69          6           0      -16.338797    0.525076    0.053990
     70          6           0      -14.863114    0.313993    0.060726
     71          8           0      -14.056930    1.209052    0.092108
     72          7           0      -14.474156   -1.025723    0.027116
     73          6           0      -15.333116   -2.129045   -0.010317
     74          7           0      -14.711516   -3.262076   -0.036558
     75          6           0      -16.768818   -1.912135   -0.016724
     76          6           0      -17.661082   -2.961116   -0.053660
     77          1           0      -17.276901   -3.973400   -0.078060
     78          6           0      -19.040643   -2.717888   -0.059747
     79          1           0      -19.747632   -3.537782   -0.089029
     80          6           0      -19.520602   -1.426912   -0.028747
     81          6           0      -20.943984   -1.139261   -0.034950
     82          7           0      -21.916003   -1.990709   -0.068927
     83          6           0      -23.078803   -1.230318   -0.060070
     84          6           0      -24.392268   -1.676094   -0.087226
     85          1           0      -24.642621   -2.727543   -0.119582
     86          6           0      -25.363742   -0.686016   -0.070595
     87          6           0      -25.018138    0.685791   -0.028238
     88          6           0      -23.716314    1.162435   -0.000321
     89          1           0      -23.466836    2.210333    0.031669
     90          6           0      -22.769057    0.149929   -0.018165
     91          7           0      -21.373358    0.191577   -0.002217
     92          6           0      -20.549831    1.317164    0.037182
     93          8           0      -21.000901    2.434259    0.063935
     94          6           0      -19.091062    1.010436    0.042519
     95          6           0      -18.624945   -0.328726    0.009939
     96          6           0      -17.234854   -0.573776    0.015869
     97          6           0      -29.578473    4.854934    0.034207
     98          1           0      -29.840966    5.905371    0.060574
     99          6           0      -28.234932    4.448803    0.039354
    100          1           0      -27.434447    5.177758    0.069803
    101          6           0      -27.912482    3.112832    0.005649
    102          6           0      -26.472510    2.728499    0.012261
    103          8           0      -25.565891    3.521720    0.045585
    104          7           0      -26.245036    1.352302   -0.023853
    105          6           0      -27.228299    0.358060   -0.063385
    106          7           0      -26.744389   -0.840326   -0.091169
    107          6           0      -28.628295    0.743797   -0.069681
    108          6           0      -29.639224   -0.191242   -0.108576
    109          1           0      -29.378355   -1.242060   -0.134894
    110          6           0      -30.980351    0.214259   -0.113976
    111          1           0      -31.779808   -0.515723   -0.144640
    112          6           0      -31.304024    1.552850   -0.080385
    113          6           0      -32.683182    2.008684   -0.085022
    114          7           0      -33.752334    1.280384   -0.119179
    115          6           0      -34.810733    2.180458   -0.107293
    116          6           0      -36.179187    1.924292   -0.131922
    117          1           0      -36.542546    0.904916   -0.165285
    118          6           0      -37.037619    3.010632   -0.112221
    119          1           0      -38.108504    2.845473   -0.130483
    120          6           0      -36.550380    4.324369   -0.068968
    121          1           0      -37.253601    5.148760   -0.054682
    122          6           0      -35.190882    4.599708   -0.043894
    123          1           0      -34.805077    5.608029   -0.010561
    124          6           0      -34.341374    3.501500   -0.064031
    125          7           0      -32.950001    3.380722   -0.049723
    126          6           0      -31.999160    4.399630   -0.008878
    127          8           0      -32.313188    5.563125    0.020096
    128          6           0      -30.587039    3.921631   -0.004683
    129          6           0      -30.283622    2.536491   -0.039904
    130          6           0      -28.932412    2.128024   -0.034597
    131          6           0       37.037641    3.010601   -0.112274
    132          6           0       36.550393    4.324341   -0.069044
    133          6           0       36.179194    1.924275   -0.131954
    134          6           0       35.190900    4.599666   -0.044000
    135          6           0       34.810722    2.180429   -0.107352
    136          6           0       34.341377    3.501466   -0.064116
    137          6           0       32.683177    2.008668   -0.085093
    138          7           0       33.752325    1.280353   -0.119247
    139          6           0       31.999164    4.399618   -0.008972
    140          7           0       32.950007    3.380702   -0.049802
    141          6           0       31.304021    1.552841   -0.080449
    142          6           0       30.980339    0.214250   -0.114027
    143          8           0       32.313194    5.563113    0.020006
    144          6           0       30.587044    3.921625   -0.004761
    145          6           0       30.283623    2.536485   -0.039972
    146          6           0       29.639215   -0.191248   -0.108617
    147          6           0       29.578488    4.854930    0.034128
    148          6           0       28.932412    2.128022   -0.034657
    149          6           0       28.628290    0.743799   -0.069727
    150          6           0       28.234941    4.448808    0.039280
    151          1           0       36.542542    0.904898   -0.165316
    152          6           0       27.912486    3.112837    0.005585
    153          6           0       27.228295    0.358064   -0.063413
    154          6           0       26.472511    2.728509    0.012192
    155          1           0       34.805070    5.607981   -0.010677
    156          6           0       25.018135    0.685799   -0.028241
    157          6           0       18.200456    2.056979    0.079564
    158          6           0       23.716311    1.162446   -0.000314
    159          7           0       26.245034    1.352311   -0.023881
    160          6           0       25.363738   -0.686008   -0.070581
    161          6           0       20.549831    1.317179    0.037245
    162          6           0       16.817986    1.813232    0.085254
    163          8           0       25.565893    3.521730    0.045552
    164          8           0       21.000903    2.434277    0.063953
    165          7           0       26.744382   -0.840321   -0.091171
    166          6           0       19.091060    1.010454    0.042586
    167          6           0       22.769054    0.149941   -0.018128
    168          6           0       24.392261   -1.676088   -0.087183
    169          6           0       23.078798   -1.230307   -0.060015
    170          6           0       16.338792    0.525094    0.054077
    171          1           0       31.779797   -0.515736   -0.144688
    172          6           0       18.624944   -0.328710    0.010027
    173          6           0       20.943979   -1.139249   -0.034871
    174          7           0       21.373355    0.191594   -0.002160
    175          6           0       14.863112    0.314011    0.060829
    176          6           0       17.234852   -0.573762    0.015967
    177          8           0       14.056928    1.209069    0.092176
    178          6           0       19.520597   -1.426893   -0.028651
    179          7           0       21.915996   -1.990696   -0.068845
    180          1           0       29.840987    5.905365    0.060485
    181          6           0       16.768820   -1.912115   -0.016608
    182          6           0       19.040639   -2.717873   -0.059633
    183          1           0       29.378338   -1.242062   -0.134922
    184          6           0       15.333118   -2.129028   -0.010197
    185          6           0       17.661081   -2.961100   -0.053536
    186          7           0       14.474156   -1.025707    0.027232
    187          1           0       27.434462    5.177770    0.069722
    188          1           0       18.585735    3.068919    0.103893
    189          1           0       23.466839    2.210345    0.031664
    190          1           0       16.110124    2.632494    0.114009
    191          7           0       14.711518   -3.262062   -0.036432
    192          1           0       24.642609   -2.727535   -0.119526
    193          1           0       19.747635   -3.537763   -0.088911
    194          1           0       17.276889   -3.973384   -0.077924
    195          6           0       10.880416   -1.811144    0.031869
    196          6           0       11.026258   -3.218332   -0.008179
    197          6           0       11.940035   -0.916720    0.049360
    198          6           0       13.177068   -1.543002    0.023104
    199          6           0       13.358870   -2.946030   -0.017094
    200          6           0       12.278071   -3.815273   -0.033357
    201          1           0       11.814952    0.153346    0.079751
    202          1           0       12.403300   -4.888867   -0.064239
    203          1           0       37.253618    5.148732   -0.054758
    204          1           0       38.108552    2.845443   -0.130509
 ---------------------------------------------------------------------

 SCF Done:  E(RwB97XD) =  -7043.27918277     A.U. after    1 cycles

 The electronic state is 1-A.
 Alpha  occ. eigenvalues --  -19.26017 -19.26017 -19.26012 -19.26012 -19.26000
 Alpha  occ. eigenvalues --  -19.26000 -19.25978 -19.25978 -19.25930 -19.25930
 Alpha  occ. eigenvalues --  -19.25863 -19.25863 -14.52424 -14.52424 -14.52418
 Alpha  occ. eigenvalues --  -14.52418 -14.52409 -14.52409 -14.52380 -14.52380
 Alpha  occ. eigenvalues --  -14.52338 -14.52338 -14.52099 -14.52099 -14.44604
 Alpha  occ. eigenvalues --  -14.44604 -14.44601 -14.44601 -14.44591 -14.44591
 Alpha  occ. eigenvalues --  -14.44573 -14.44573 -14.44516 -14.44516 -14.44277
 Alpha  occ. eigenvalues --  -14.44277 -10.43888 -10.43888 -10.43883 -10.43883
 Alpha  occ. eigenvalues --  -10.43870 -10.43870 -10.43847 -10.43847 -10.43797
 Alpha  occ. eigenvalues --  -10.43797 -10.43731 -10.43731 -10.39031 -10.39031
 Alpha  occ. eigenvalues --  -10.39028 -10.39028 -10.39020 -10.39020 -10.38996
 Alpha  occ. eigenvalues --  -10.38996 -10.38957 -10.38957 -10.38676 -10.38676
 Alpha  occ. eigenvalues --  -10.35225 -10.35224 -10.35214 -10.35214 -10.35213
 Alpha  occ. eigenvalues --  -10.35213 -10.35161 -10.35161 -10.35149 -10.35149
 Alpha  occ. eigenvalues --  -10.34738 -10.34738 -10.34718 -10.34718 -10.34692
 Alpha  occ. eigenvalues --  -10.34692 -10.34671 -10.34671 -10.34611 -10.34611
 Alpha  occ. eigenvalues --  -10.34591 -10.34591 -10.34590 -10.34590 -10.34568
 Alpha  occ. eigenvalues --  -10.34568 -10.34562 -10.34562 -10.34554 -10.34554
 Alpha  occ. eigenvalues --  -10.34480 -10.34480 -10.34453 -10.34453 -10.34388
 Alpha  occ. eigenvalues --  -10.34388 -10.34386 -10.34386 -10.34372 -10.34372
 Alpha  occ. eigenvalues --  -10.34368 -10.34368 -10.34251 -10.34251 -10.34241
 Alpha  occ. eigenvalues --  -10.34241 -10.34212 -10.34212 -10.33612 -10.33611
 Alpha  occ. eigenvalues --  -10.33604 -10.33604 -10.33602 -10.33602 -10.33562
 Alpha  occ. eigenvalues --  -10.33562 -10.33549 -10.33549 -10.33548 -10.33548
 Alpha  occ. eigenvalues --  -10.33524 -10.33524 -10.33495 -10.33495 -10.33471
 Alpha  occ. eigenvalues --  -10.33471 -10.33440 -10.33440 -10.33387 -10.33387
 Alpha  occ. eigenvalues --  -10.32997 -10.32997 -10.32979 -10.32979 -10.32943
 Alpha  occ. eigenvalues --  -10.32943 -10.32925 -10.32925 -10.32871 -10.32871
 Alpha  occ. eigenvalues --  -10.32797 -10.32797 -10.32768 -10.32768 -10.31435
 Alpha  occ. eigenvalues --  -10.31423 -10.31423 -10.31364 -10.31364 -10.30818
 Alpha  occ. eigenvalues --  -10.30811 -10.30811 -10.30766 -10.30766 -10.30232
 Alpha  occ. eigenvalues --  -10.30232 -10.29930 -10.29930 -10.29871 -10.29871
 Alpha  occ. eigenvalues --  -10.29693 -10.29693  -1.20289  -1.20277  -1.20271
 Alpha  occ. eigenvalues --   -1.20237  -1.20234  -1.20229  -1.20216  -1.20214
 Alpha  occ. eigenvalues --   -1.20161  -1.20161  -1.20040  -1.20040  -1.15236
 Alpha  occ. eigenvalues --   -1.15222  -1.15218  -1.15168  -1.15168  -1.14977
 Alpha  occ. eigenvalues --   -1.14962  -1.14957  -1.14906  -1.14906  -1.14777
 Alpha  occ. eigenvalues --   -1.14777  -1.04337  -1.04283  -1.04220  -1.04162
 Alpha  occ. eigenvalues --   -1.04070  -1.04066  -1.03096  -1.03022  -1.02938
 Alpha  occ. eigenvalues --   -1.02852  -1.02772  -1.02692  -1.02627  -1.02569
 Alpha  occ. eigenvalues --   -1.02521  -1.02498  -1.02328  -1.02328  -0.98752
 Alpha  occ. eigenvalues --   -0.98626  -0.98487  -0.98387  -0.98354  -0.97944
 Alpha  occ. eigenvalues --   -0.97944  -0.97853  -0.97761  -0.97574  -0.97279
 Alpha  occ. eigenvalues --   -0.96892  -0.96684  -0.95913  -0.95418  -0.94920
 Alpha  occ. eigenvalues --   -0.94457  -0.94078  -0.93854  -0.90110  -0.90107
 Alpha  occ. eigenvalues --   -0.89977  -0.89964  -0.89796  -0.89790  -0.89373
 Alpha  occ. eigenvalues --   -0.89369  -0.89272  -0.89242  -0.89200  -0.89185
 Alpha  occ. eigenvalues --   -0.88387  -0.88020  -0.87577  -0.87511  -0.87403
 Alpha  occ. eigenvalues --   -0.87232  -0.87015  -0.86918  -0.86823  -0.86418
 Alpha  occ. eigenvalues --   -0.86092  -0.85601  -0.84911  -0.84545  -0.82501
 Alpha  occ. eigenvalues --   -0.82428  -0.82298  -0.82060  -0.81811  -0.81740
 Alpha  occ. eigenvalues --   -0.81407  -0.81328  -0.80581  -0.79851  -0.79401
 Alpha  occ. eigenvalues --   -0.78836  -0.78800  -0.78702  -0.78441  -0.78014
 Alpha  occ. eigenvalues --   -0.77381  -0.76695  -0.76683  -0.76628  -0.76546
 Alpha  occ. eigenvalues --   -0.76452  -0.76351  -0.76334  -0.75847  -0.75750
 Alpha  occ. eigenvalues --   -0.75642  -0.75548  -0.75451  -0.75425  -0.74925
 Alpha  occ. eigenvalues --   -0.74291  -0.73686  -0.73200  -0.72807  -0.72533
 Alpha  occ. eigenvalues --   -0.72378  -0.72277  -0.71979  -0.71752  -0.71546
 Alpha  occ. eigenvalues --   -0.71512  -0.71261  -0.71251  -0.69895  -0.69771
 Alpha  occ. eigenvalues --   -0.69458  -0.69019  -0.68768  -0.68552  -0.68319
 Alpha  occ. eigenvalues --   -0.68105  -0.67664  -0.67601  -0.67415  -0.67112
 Alpha  occ. eigenvalues --   -0.66540  -0.66096  -0.65829  -0.65718  -0.65309
 Alpha  occ. eigenvalues --   -0.65303  -0.64921  -0.64894  -0.64645  -0.64597
 Alpha  occ. eigenvalues --   -0.64466  -0.63937  -0.63910  -0.63647  -0.63410
 Alpha  occ. eigenvalues --   -0.63256  -0.63232  -0.62571  -0.62568  -0.61661
 Alpha  occ. eigenvalues --   -0.61659  -0.61614  -0.61536  -0.61489  -0.61434
 Alpha  occ. eigenvalues --   -0.61108  -0.60763  -0.60755  -0.60612  -0.60509
 Alpha  occ. eigenvalues --   -0.60445  -0.60361  -0.60259  -0.60149  -0.60128
 Alpha  occ. eigenvalues --   -0.59931  -0.59928  -0.59831  -0.59692  -0.59552
 Alpha  occ. eigenvalues --   -0.59428  -0.59330  -0.59302  -0.58474  -0.58432
 Alpha  occ. eigenvalues --   -0.58384  -0.58197  -0.58085  -0.58022  -0.57877
 Alpha  occ. eigenvalues --   -0.57658  -0.57557  -0.57534  -0.57244  -0.57070
 Alpha  occ. eigenvalues --   -0.56877  -0.56861  -0.56811  -0.56784  -0.56734
 Alpha  occ. eigenvalues --   -0.56668  -0.56664  -0.56405  -0.56223  -0.56094
 Alpha  occ. eigenvalues --   -0.56040  -0.55964  -0.55957  -0.55454  -0.55403
 Alpha  occ. eigenvalues --   -0.55368  -0.55329  -0.55304  -0.55115  -0.55105
 Alpha  occ. eigenvalues --   -0.55005  -0.54898  -0.54813  -0.54480  -0.54467
 Alpha  occ. eigenvalues --   -0.54046  -0.54046  -0.53900  -0.53898  -0.53748
 Alpha  occ. eigenvalues --   -0.53650  -0.53539  -0.53458  -0.53406  -0.53358
 Alpha  occ. eigenvalues --   -0.53287  -0.53013  -0.52981  -0.52980  -0.52772
 Alpha  occ. eigenvalues --   -0.52436  -0.52398  -0.52353  -0.52218  -0.52177
 Alpha  occ. eigenvalues --   -0.52146  -0.52089  -0.52057  -0.52055  -0.52029
 Alpha  occ. eigenvalues --   -0.52026  -0.51980  -0.51909  -0.51893  -0.51889
 Alpha  occ. eigenvalues --   -0.51860  -0.51818  -0.51812  -0.51726  -0.51601
 Alpha  occ. eigenvalues --   -0.51577  -0.51564  -0.51434  -0.51374  -0.51194
 Alpha  occ. eigenvalues --   -0.51091  -0.50982  -0.50889  -0.50848  -0.49671
 Alpha  occ. eigenvalues --   -0.49589  -0.49500  -0.49425  -0.49395  -0.47914
 Alpha  occ. eigenvalues --   -0.47787  -0.47643  -0.47497  -0.47370  -0.47297
 Alpha  occ. eigenvalues --   -0.46602  -0.46562  -0.46548  -0.46504  -0.46504
 Alpha  occ. eigenvalues --   -0.46502  -0.46498  -0.46417  -0.46417  -0.46175
 Alpha  occ. eigenvalues --   -0.46170  -0.46158  -0.46157  -0.46112  -0.46112
 Alpha  occ. eigenvalues --   -0.45698  -0.45697  -0.45209  -0.45001  -0.44683
 Alpha  occ. eigenvalues --   -0.44255  -0.43734  -0.42983  -0.42704  -0.42676
 Alpha  occ. eigenvalues --   -0.42622  -0.42569  -0.42518  -0.42506  -0.41890
 Alpha  occ. eigenvalues --   -0.41353  -0.40990  -0.40717  -0.40681  -0.40646
 Alpha  occ. eigenvalues --   -0.40561  -0.40477  -0.40432  -0.40326  -0.40080
 Alpha  occ. eigenvalues --   -0.39795  -0.39794  -0.39789  -0.39750  -0.39633
 Alpha  occ. eigenvalues --   -0.39483  -0.39217  -0.39216  -0.39081  -0.39021
 Alpha  occ. eigenvalues --   -0.38973  -0.38918  -0.38917  -0.38497  -0.38476
 Alpha  occ. eigenvalues --   -0.38448  -0.38418  -0.38362  -0.38338  -0.38290
 Alpha  occ. eigenvalues --   -0.38243  -0.38205  -0.38190  -0.38062  -0.38062
 Alpha  occ. eigenvalues --   -0.36602  -0.36584  -0.36562  -0.36552  -0.36465
 Alpha  occ. eigenvalues --   -0.36465  -0.35452  -0.35423  -0.35377  -0.35262
 Alpha  occ. eigenvalues --   -0.35063  -0.34840  -0.32771  -0.32759  -0.32414
 Alpha  occ. eigenvalues --   -0.32278  -0.32018  -0.31774  -0.31670  -0.31670
 Alpha  occ. eigenvalues --   -0.29972  -0.29852  -0.29628  -0.29298  -0.28967
 Alpha  occ. eigenvalues --   -0.28753
 Alpha virt. eigenvalues --   -0.07848  -0.07769  -0.07686  -0.07627  -0.07552
 Alpha virt. eigenvalues --   -0.07551  -0.02011  -0.01724  -0.01266  -0.00648
 Alpha virt. eigenvalues --    0.00085   0.00618   0.00802   0.00827   0.00968

 Mulliken charges:
               1
     1  C   -0.019271
     2  H    0.137292
     3  C   -0.019195
     4  H    0.137297
     5  C   -0.294646
     6  C    0.576872
     7  O   -0.317668
     8  N   -0.617773
     9  C    0.548202
    10  N   -0.357091
    11  C   -0.270530
    12  C   -0.000962
    13  H    0.129950
    14  C   -0.000879
    15  H    0.129945
    16  C   -0.270736
    17  C    0.548341
    18  N   -0.357091
    19  C   -0.030408
    20  C   -0.045995
    21  H    0.121697
    22  C   -0.030408
    23  C    0.229912
    24  C    0.017424
    25  H    0.173841
    26  C    0.229914
    27  N   -0.617811
    28  C    0.576854
    29  O   -0.317641
    30  C   -0.294607
    31  C    0.152420
    32  C    0.152383
    33  C   -0.019195
    34  H    0.137297
    35  C   -0.019270
    36  H    0.137293
    37  C   -0.294609
    38  C    0.576855
    39  O   -0.317641
    40  N   -0.617809
    41  C    0.548342
    42  N   -0.357091
    43  C   -0.270735
    44  C   -0.000879
    45  H    0.129945
    46  C   -0.000963
    47  H    0.129950
    48  C   -0.270531
    49  C    0.548205
    50  N   -0.357092
    51  C   -0.030413
    52  C   -0.045995
    53  H    0.121679
    54  C   -0.030423
    55  C    0.229827
    56  C    0.017625
    57  H    0.173834
    58  C    0.229874
    59  N   -0.617773
    60  C    0.576872
    61  O   -0.317670
    62  C   -0.294647
    63  C    0.152384
    64  C    0.152420
    65  C   -0.019141
    66  H    0.137268
    67  C   -0.019287
    68  H    0.137248
    69  C   -0.294758
    70  C    0.576920
    71  O   -0.317752
    72  N   -0.617741
    73  C    0.548271
    74  N   -0.357120
    75  C   -0.270827
    76  C   -0.000904
    77  H    0.129905
    78  C   -0.001217
    79  H    0.129922
    80  C   -0.269974
    81  C    0.547898
    82  N   -0.357070
    83  C   -0.030282
    84  C   -0.046288
    85  H    0.121545
    86  C   -0.030008
    87  C    0.229592
    88  C    0.017625
    89  H    0.173760
    90  C    0.229397
    91  N   -0.617644
    92  C    0.576983
    93  O   -0.317801
    94  C   -0.295024
    95  C    0.152265
    96  C    0.152506
    97  C   -0.019880
    98  H    0.136120
    99  C   -0.019341
   100  H    0.136808
   101  C   -0.295505
   102  C    0.576998
   103  O   -0.318287
   104  N   -0.617611
   105  C    0.548249
   106  N   -0.357366
   107  C   -0.271467
   108  C   -0.000877
   109  H    0.129542
   110  C   -0.003265
   111  H    0.129764
   112  C   -0.264523
   113  C    0.544440
   114  N   -0.354363
   115  C   -0.029006
   116  C   -0.079596
   117  H    0.117298
   118  C   -0.110658
   119  H    0.114964
   120  C   -0.119483
   121  H    0.117224
   122  C   -0.047169
   123  H    0.142448
   124  C    0.229502
   125  N   -0.610351
   126  C    0.577929
   127  O   -0.321420
   128  C   -0.295983
   129  C    0.150627
   130  C    0.153321
   131  C   -0.110658
   132  C   -0.119483
   133  C   -0.079600
   134  C   -0.047174
   135  C   -0.029004
   136  C    0.229503
   137  C    0.544440
   138  N   -0.354361
   139  C    0.577931
   140  N   -0.610352
   141  C   -0.264524
   142  C   -0.003266
   143  O   -0.321420
   144  C   -0.295982
   145  C    0.150625
   146  C   -0.000873
   147  C   -0.019879
   148  C    0.153322
   149  C   -0.271472
   150  C   -0.019340
   151  H    0.117299
   152  C   -0.295503
   153  C    0.548249
   154  C    0.576997
   155  H    0.142448
   156  C    0.229592
   157  C   -0.019140
   158  C    0.017625
   159  N   -0.617613
   160  C   -0.030008
   161  C    0.576982
   162  C   -0.019288
   163  O   -0.318285
   164  O   -0.317803
   165  N   -0.357365
   166  C   -0.295022
   167  C    0.229398
   168  C   -0.046286
   169  C   -0.030282
   170  C   -0.294756
   171  H    0.129765
   172  C    0.152266
   173  C    0.547898
   174  N   -0.617644
   175  C    0.576921
   176  C    0.152504
   177  O   -0.317750
   178  C   -0.269977
   179  N   -0.357070
   180  H    0.136120
   181  C   -0.270830
   182  C   -0.001215
   183  H    0.129541
   184  C    0.548269
   185  C   -0.000903
   186  N   -0.617742
   187  H    0.136808
   188  H    0.137268
   189  H    0.173760
   190  H    0.137248
   191  N   -0.357120
   192  H    0.121545
   193  H    0.129922
   194  H    0.129905
   195  C    0.229875
   196  C   -0.030414
   197  C    0.017624
   198  C    0.229827
   199  C   -0.030423
   200  C   -0.045994
   201  H    0.173833
   202  H    0.121679
   203  H    0.117225
   204  H    0.114964
 Sum of Mulliken charges =  -0.00000

 Dipole moment (field-independent basis, Debye):
    X=             -0.0001    Y=             -0.5338    Z=             -0.0470  Tot=              0.5358
 Quadrupole moment (field-independent basis, Debye-Ang):
   XX=           -791.7528   YY=           -905.4451   ZZ=           -908.9061
   XY=              0.0010   XZ=              0.0001   YZ=             -0.0261

 Normal termination of Gaussian 16 at Sat Feb 17 23:47:08 2024.
