 Gaussian 16, Revision B.01,
 Gaussian 16:  ES64L-G16RevB.01 20-Dec-2017

 -------------------
 # wb97xd/6-311(d,p)
 -------------------

 ----------------------------
 structures_preEM/step_37.pdb
 ----------------------------
 Symbolic Z-matrix:
 Charge =  0 Multiplicity = 1

                         Standard orientation:
 ---------------------------------------------------------------------
 Center     Atomic      Atomic             Coordinates (Angstroms)
 Number     Number       Type             X           Y           Z
 ---------------------------------------------------------------------
      1          6           0       -2.715986    0.701995    1.850000
      2          1           0       -3.645986    1.256995    1.850000
      3          6           0       -2.715986   -0.702005    1.850000
      4          1           0       -3.645986   -1.257005    1.850000
      5          6           0       -1.529986   -1.397005    1.850000
      6          6           0       -1.578986   -2.887005    1.850000
      7          8           0       -2.601986   -3.524005    1.850000
      8          7           0       -0.327986   -3.502005    1.850000
      9          6           0       -0.040986   -4.869005    1.850000
     10          6           0       -0.846986   -6.000005    1.850000
     11          1           0       -1.923986   -5.922005    1.850000
     12          6           0       -0.188986   -7.222005    1.850000
     13          6           0        1.210014   -7.308005    1.850000
     14          6           0        2.002014   -6.172005    1.850000
     15          1           0        3.083014   -6.225005    1.850000
     16          6           0        1.360014   -4.937005    1.850000
     17          7           0        1.916014   -3.663005    1.850000
     18          6           0        0.909014   -2.850005    1.850000
     19          6           0        0.946014   -1.398005    1.850000
     20          6           0        2.134014   -0.701005    1.850000
     21          1           0        3.065014   -1.255005    1.850000
     22          6           0        2.134014    0.699995    1.850000
     23          1           0        3.065014    1.253995    1.850000
     24          6           0        0.946014    1.397995    1.850000
     25          6           0        0.909014    2.849995    1.850000
     26          7           0        1.916014    3.662995    1.850000
     27          6           0        1.361014    4.936995    1.850000
     28          6           0       -0.040986    4.868995    1.850000
     29          7           0       -0.326986    3.501995    1.850000
     30          6           0       -1.578986    2.886995    1.850000
     31          8           0       -2.601986    3.524995    1.850000
     32          6           0       -1.529986    1.396995    1.850000
     33          6           0       -0.290986    0.705995    1.850000
     34          6           0       -0.290986   -0.706005    1.850000
     35          6           0        2.002014    6.171995    1.850000
     36          1           0        3.083014    6.224995    1.850000
     37          6           0        1.210014    7.307995    1.850000
     38          1           0        1.678014    8.285995    1.850000
     39          6           0       -0.188986    7.221995    1.850000
     40          1           0       -0.774986    8.133995    1.850000
     41          6           0       -0.845986    5.999995    1.850000
     42          1           0       -1.923986    5.921995    1.850000
     43          1           0       -0.774986   -8.134005    1.850000
     44          1           0        1.678014   -8.286005    1.850000
     45          6           0       -2.715986    0.701995   -1.850000
     46          1           0       -3.645986    1.256995   -1.850000
     47          6           0       -2.715986   -0.702005   -1.850000
     48          1           0       -3.645986   -1.257005   -1.850000
     49          6           0       -1.529986   -1.397005   -1.850000
     50          6           0       -1.578986   -2.887005   -1.850000
     51          8           0       -2.601986   -3.524005   -1.850000
     52          7           0       -0.327986   -3.502005   -1.850000
     53          6           0       -0.040986   -4.869005   -1.850000
     54          6           0       -0.846986   -6.000005   -1.850000
     55          1           0       -1.923986   -5.922005   -1.850000
     56          6           0       -0.188986   -7.222005   -1.850000
     57          6           0        1.210014   -7.308005   -1.850000
     58          6           0        2.002014   -6.172005   -1.850000
     59          1           0        3.083014   -6.225005   -1.850000
     60          6           0        1.360014   -4.937005   -1.850000
     61          7           0        1.916014   -3.663005   -1.850000
     62          6           0        0.909014   -2.850005   -1.850000
     63          6           0        0.946014   -1.398005   -1.850000
     64          6           0        2.134014   -0.701005   -1.850000
     65          1           0        3.065014   -1.255005   -1.850000
     66          6           0        2.134014    0.699995   -1.850000
     67          1           0        3.065014    1.253995   -1.850000
     68          6           0        0.946014    1.397995   -1.850000
     69          6           0        0.909014    2.849995   -1.850000
     70          7           0        1.916014    3.662995   -1.850000
     71          6           0        1.361014    4.936995   -1.850000
     72          6           0       -0.040986    4.868995   -1.850000
     73          7           0       -0.326986    3.501995   -1.850000
     74          6           0       -1.578986    2.886995   -1.850000
     75          8           0       -2.601986    3.524995   -1.850000
     76          6           0       -1.529986    1.396995   -1.850000
     77          6           0       -0.290986    0.705995   -1.850000
     78          6           0       -0.290986   -0.706005   -1.850000
     79          6           0        2.002014    6.171995   -1.850000
     80          1           0        3.083014    6.224995   -1.850000
     81          6           0        1.210014    7.307995   -1.850000
     82          1           0        1.678014    8.285995   -1.850000
     83          6           0       -0.188986    7.221995   -1.850000
     84          1           0       -0.774986    8.133995   -1.850000
     85          6           0       -0.845986    5.999995   -1.850000
     86          1           0       -1.923986    5.921995   -1.850000
     87          1           0       -0.774986   -8.134005   -1.850000
     88          1           0        1.678014   -8.286005   -1.850000
 ---------------------------------------------------------------------

 SCF Done:  E(RwB97XD) =  -2734.83300595     A.U. after   16 cycles

 The electronic state is 1-A'.
 Alpha  occ. eigenvalues --  -19.25631 -19.25630 -19.25619 -19.25618 -14.51842
 Alpha  occ. eigenvalues --  -14.51842 -14.51840 -14.51840 -14.43958 -14.43957
 Alpha  occ. eigenvalues --  -14.43941 -14.43941 -10.43477 -10.43477 -10.43461
 Alpha  occ. eigenvalues --  -10.43461 -10.38331 -10.38331 -10.38321 -10.38320
 Alpha  occ. eigenvalues --  -10.34370 -10.34369 -10.34326 -10.34325 -10.34267
 Alpha  occ. eigenvalues --  -10.34266 -10.34262 -10.34262 -10.33945 -10.33945
 Alpha  occ. eigenvalues --  -10.33941 -10.33940 -10.33820 -10.33820 -10.33811
 Alpha  occ. eigenvalues --  -10.33811 -10.33268 -10.33267 -10.33216 -10.33215
 Alpha  occ. eigenvalues --  -10.32569 -10.32568 -10.32515 -10.32515 -10.32364
 Alpha  occ. eigenvalues --  -10.32364 -10.32357 -10.32357 -10.29829 -10.29828
 Alpha  occ. eigenvalues --  -10.29819 -10.29818 -10.29522 -10.29521 -10.29508
 Alpha  occ. eigenvalues --  -10.29507 -10.29490 -10.29490 -10.29478 -10.29478
 Alpha  occ. eigenvalues --  -10.29315 -10.29315 -10.29307 -10.29307  -1.19840
 Alpha  occ. eigenvalues --   -1.19810  -1.19750  -1.19721  -1.14535  -1.14510
 Alpha  occ. eigenvalues --   -1.14424  -1.14401  -1.03922  -1.03696  -1.02276
 Alpha  occ. eigenvalues --   -1.02168  -1.01992  -1.01868  -0.97819  -0.97589
 Alpha  occ. eigenvalues --   -0.97568  -0.97347  -0.96228  -0.96004  -0.94325
 Alpha  occ. eigenvalues --   -0.94109  -0.89506  -0.89309  -0.89097  -0.88882
 Alpha  occ. eigenvalues --   -0.87426  -0.87239  -0.86039  -0.85839  -0.85831
 Alpha  occ. eigenvalues --   -0.85631  -0.84110  -0.83925  -0.81597  -0.81440
 Alpha  occ. eigenvalues --   -0.78642  -0.78467  -0.78450  -0.78328  -0.76221
 Alpha  occ. eigenvalues --   -0.76056  -0.75211  -0.75082  -0.73234  -0.73086
 Alpha  occ. eigenvalues --   -0.72247  -0.72087  -0.70916  -0.70765  -0.70651
 Alpha  occ. eigenvalues --   -0.70505  -0.67922  -0.67760  -0.66967  -0.66816
 Alpha  occ. eigenvalues --   -0.64804  -0.64657  -0.64657  -0.64507  -0.62688
 Alpha  occ. eigenvalues --   -0.62558  -0.62040  -0.61916  -0.60721  -0.60562
 Alpha  occ. eigenvalues --   -0.60463  -0.60418  -0.60339  -0.60055  -0.58760
 Alpha  occ. eigenvalues --   -0.58384  -0.58321  -0.58181  -0.57237  -0.57138
 Alpha  occ. eigenvalues --   -0.56700  -0.56585  -0.56165  -0.56067  -0.55211
 Alpha  occ. eigenvalues --   -0.55105  -0.54841  -0.54725  -0.54398  -0.54256
 Alpha  occ. eigenvalues --   -0.54059  -0.53831  -0.53711  -0.53316  -0.53143
 Alpha  occ. eigenvalues --   -0.53035  -0.52902  -0.52438  -0.52278  -0.52189
 Alpha  occ. eigenvalues --   -0.52073  -0.51786  -0.51620  -0.51508  -0.51148
 Alpha  occ. eigenvalues --   -0.51043  -0.50665  -0.50635  -0.47377  -0.47319
 Alpha  occ. eigenvalues --   -0.47296  -0.47156  -0.46431  -0.46308  -0.45993
 Alpha  occ. eigenvalues --   -0.45974  -0.45853  -0.45844  -0.45508  -0.45370
 Alpha  occ. eigenvalues --   -0.45348  -0.45233  -0.44987  -0.44801  -0.44524
 Alpha  occ. eigenvalues --   -0.42693  -0.42404  -0.41327  -0.40845  -0.40711
 Alpha  occ. eigenvalues --   -0.39889  -0.39080  -0.39051  -0.38901  -0.38811
 Alpha  occ. eigenvalues --   -0.38671  -0.37984  -0.37812  -0.37749  -0.37578
 Alpha  occ. eigenvalues --   -0.37363  -0.36167  -0.35172  -0.34209  -0.33544
 Alpha  occ. eigenvalues --   -0.33188  -0.33015  -0.31549  -0.31215  -0.31023
 Alpha  occ. eigenvalues --   -0.30010  -0.28242
 Alpha virt. eigenvalues --   -0.08241  -0.06453  -0.01265   0.00077   0.00705
 Alpha virt. eigenvalues --    0.00989   0.02216   0.02652   0.03408   0.05215
 Alpha virt. eigenvalues --    0.05505   0.05759   0.07099   0.07593   0.07927

 Mulliken charges:
               1
     1  C   -0.023376
     2  H    0.135282
     3  C   -0.023472
     4  H    0.135275
     5  C   -0.290367
     6  C    0.563393
     7  O   -0.318552
     8  N   -0.601502
     9  C    0.230725
    10  C   -0.048317
    11  H    0.140092
    12  C   -0.113347
    13  C   -0.103831
    14  C   -0.079432
    15  H    0.113401
    16  C   -0.021719
    17  N   -0.344566
    18  C    0.532843
    19  C   -0.258728
    20  C   -0.007081
    21  H    0.128622
    22  C   -0.007431
    23  H    0.128622
    24  C   -0.258762
    25  C    0.533188
    26  N   -0.344632
    27  C   -0.021383
    28  C    0.230317
    29  N   -0.601535
    30  C    0.563121
    31  O   -0.318600
    32  C   -0.290100
    33  C    0.144504
    34  C    0.144610
    35  C   -0.079448
    36  H    0.113316
    37  C   -0.103889
    38  H    0.109671
    39  C   -0.113118
    40  H    0.112413
    41  C   -0.048428
    42  H    0.140070
    43  H    0.112450
    44  H    0.109699
    45  C   -0.023376
    46  H    0.135282
    47  C   -0.023472
    48  H    0.135275
    49  C   -0.290367
    50  C    0.563393
    51  O   -0.318552
    52  N   -0.601502
    53  C    0.230725
    54  C   -0.048317
    55  H    0.140092
    56  C   -0.113347
    57  C   -0.103831
    58  C   -0.079432
    59  H    0.113401
    60  C   -0.021719
    61  N   -0.344566
    62  C    0.532843
    63  C   -0.258728
    64  C   -0.007081
    65  H    0.128622
    66  C   -0.007431
    67  H    0.128622
    68  C   -0.258762
    69  C    0.533188
    70  N   -0.344632
    71  C   -0.021383
    72  C    0.230317
    73  N   -0.601535
    74  C    0.563121
    75  O   -0.318600
    76  C   -0.290100
    77  C    0.144504
    78  C    0.144610
    79  C   -0.079448
    80  H    0.113316
    81  C   -0.103889
    82  H    0.109671
    83  C   -0.113118
    84  H    0.112413
    85  C   -0.048428
    86  H    0.140070
    87  H    0.112450
    88  H    0.109699
 Sum of Mulliken charges =  -0.00000

 Dipole moment (field-independent basis, Debye):
    X=              0.6991    Y=             -0.0180    Z=              0.0000  Tot=              0.6994
 Quadrupole moment (field-independent basis, Debye-Ang):
   XX=           -356.0836   YY=           -323.2819   ZZ=           -370.0096
   XY=             -0.0305   XZ=              0.0000   YZ=              0.0000

 Normal termination of Gaussian 16 at Thu Jun 20 13:59:14 2024.
