 Gaussian 16, Revision C.01,
 Gaussian 16:  ES64L-G16RevC.01  3-Jul-2019

 ----------------------------------------------------------------------
 #p scrf=(smd,solvent=water) uwB97XD/6-311(d,p) Geom=AllCheck guess=rea
 d stable
 ----------------------------------------------------------------------

 Structure from the checkpoint file:  "checkpoint.chk"
 ---
 050
 ---
 Charge = -6 Multiplicity = 1

                         Standard orientation:
 ---------------------------------------------------------------------
 Center     Atomic      Atomic             Coordinates (Angstroms)
 Number     Number       Type             X           Y           Z
 ---------------------------------------------------------------------
      1          6           0        5.122798    0.159014   -0.168638
      2          1           0        4.510851    1.051129   -0.216143
      3          6           0        6.491260    0.257132   -0.177016
      4          1           0        6.969134    1.227299   -0.231655
      5          6           0        7.298927   -0.896520   -0.114630
      6          6           0        8.734197   -0.749822   -0.122871
      7          8           0        9.341811    0.319440   -0.182563
      8          7           0        9.450381   -1.953480   -0.055968
      9          6           0        8.893419   -3.228855    0.008338
     10          7           0        9.795533   -4.178741    0.053472
     11          6           0        7.464346   -3.364322    0.020005
     12          6           0        6.842921   -4.619825    0.091530
     13          1           0        7.454120   -5.512123    0.138063
     14          6           0        5.469664   -4.717125    0.102958
     15          1           0        4.991081   -5.686566    0.158894
     16          6           0        4.676189   -3.562401    0.042063
     17          6           0        3.241167   -3.630643    0.050274
     18          7           0        2.484472   -4.697975    0.111381
     19          6           0        1.180937   -4.227667    0.086482
     20          6           0       -0.000001   -4.960047    0.127482
     21          1           0       -0.000001   -6.041279    0.187712
     22          6           0       -1.180940   -4.227668    0.086465
     23          6           0       -1.162478   -2.814839    0.007256
     24          6           0       -0.000001   -2.059010   -0.035207
     25          1           0       -0.000001   -0.985116   -0.097608
     26          6           0        1.162477   -2.814839    0.007272
     27          7           0        2.508733   -2.447365   -0.014611
     28          6           0        3.045655   -1.156985   -0.089685
     29          8           0        2.294064   -0.183087   -0.143249
     30          6           0        4.488708   -1.097267   -0.097039
     31          6           0        5.270859   -2.283770   -0.032455
     32          6           0        6.694132   -2.182363   -0.042057
     33          6           0       -6.491260    0.257130   -0.177089
     34          1           0       -6.969134    1.227297   -0.231728
     35          6           0       -5.122799    0.159012   -0.168696
     36          1           0       -4.510852    1.051128   -0.216189
     37          6           0       -4.488710   -1.097268   -0.097094
     38          6           0       -3.045656   -1.156986   -0.089723
     39          8           0       -2.294065   -0.183088   -0.143274
     40          7           0       -2.508734   -2.447366   -0.014645
     41          6           0       -3.241169   -3.630644    0.050229
     42          7           0       -2.484475   -4.697977    0.111345
     43          6           0       -4.676191   -3.562403    0.041998
     44          6           0       -5.469666   -4.717127    0.102879
     45          1           0       -4.991084   -5.686568    0.158818
     46          6           0       -6.842923   -4.619828    0.091434
     47          1           0       -7.454122   -5.512127    0.137956
     48          6           0       -7.464347   -3.364325    0.019906
     49          6           0       -8.893421   -3.228858    0.008223
     50          7           0       -9.795535   -4.178745    0.053343
     51          6           0      -11.015640   -3.527775    0.020116
     52          6           0      -12.289990   -4.084832    0.046068
     53          1           0      -12.447647   -5.154680    0.096175
     54          6           0      -13.346816   -3.188031    0.006030
     55          6           0      -13.129565   -1.794478   -0.056062
     56          6           0      -11.874950   -1.208756   -0.086430
     57          1           0      -11.719804   -0.145057   -0.134421
     58          6           0      -10.832739   -2.125431   -0.047091
     59          7           0       -9.450383   -1.953484   -0.056082
     60          6           0       -8.734198   -0.749825   -0.122972
     61          8           0       -9.341812    0.319437   -0.182663
     62          6           0       -7.298928   -0.896523   -0.114717
     63          6           0       -6.694134   -2.182366   -0.042142
     64          6           0       -5.270860   -2.283772   -0.032524
     65          6           0      -18.031040    1.960975   -0.154801
     66          1           0      -18.366655    2.989517   -0.187220
     67          6           0      -16.658524    1.670386   -0.159697
     68          1           0      -15.935591    2.475259   -0.196119
     69          6           0      -16.224258    0.367046   -0.118180
     70          6           0      -14.764726    0.101391   -0.122982
     71          8           0      -13.920616    0.971827   -0.164367
     72          7           0      -14.414555   -1.241008   -0.074276
     73          6           0      -15.305390   -2.315777   -0.024563
     74          7           0      -14.711805   -3.466569    0.022158
     75          6           0      -16.733137   -2.054092   -0.025855
     76          6           0      -17.662975   -3.069719    0.018996
     77          1           0      -17.333263   -4.099957    0.052751
     78          6           0      -19.032954   -2.779320    0.022572
     79          1           0      -19.752272   -3.587219    0.059153
     80          6           0      -19.470854   -1.473768   -0.018127
     81          6           0      -20.881890   -1.133421   -0.010581
     82          7           0      -21.889956   -1.945504    0.038533
     83          6           0      -23.027737   -1.138791    0.030088
     84          6           0      -24.355735   -1.533224    0.075833
     85          1           0      -24.640005   -2.577056    0.123384
     86          6           0      -25.305482   -0.511593    0.060237
     87          6           0      -24.902827    0.849831   -0.002238
     88          6           0      -23.576941    1.263295   -0.049421
     89          1           0      -23.291229    2.299291   -0.095085
     90          6           0      -22.662952    0.222920   -0.029818
     91          7           0      -21.261418    0.210093   -0.056005
     92          6           0      -20.399028    1.292777   -0.103953
     93          8           0      -20.815333    2.432944   -0.138545
     94          6           0      -18.955372    0.945035   -0.108498
     95          6           0      -18.535865   -0.409023   -0.066307
     96          6           0      -17.155596   -0.701555   -0.070324
     97          6           0      -29.160118    5.275116   -0.060413
     98          1           0      -29.364714    6.338740   -0.097546
     99          6           0      -27.891104    4.818242   -0.078525
    100          1           0      -27.057391    5.508413   -0.130509
    101          6           0      -27.606209    3.403771   -0.029272
    102          6           0      -26.261919    2.965537   -0.048890
    103          8           0      -25.242437    3.689788   -0.105506
    104          7           0      -26.095667    1.568165    0.001260
    105          6           0      -27.122694    0.629408    0.065191
    106          7           0      -26.673688   -0.619331    0.100502
    107          6           0      -28.465281    1.082944    0.086255
    108          6           0      -29.560669    0.167059    0.155071
    109          1           0      -29.351800   -0.895165    0.190426
    110          6           0      -30.835994    0.627601    0.175876
    111          1           0      -31.674105   -0.056599    0.228385
    112          6           0      -31.095659    2.032317    0.127717
    113          6           0      -32.419389    2.541455    0.147785
    114          7           0      -33.561124    1.865995    0.211452
    115          6           0      -34.542607    2.826812    0.202398
    116          6           0      -35.932448    2.667814    0.252938
    117          1           0      -36.366121    1.675614    0.307899
    118          6           0      -36.726201    3.802155    0.231338
    119          1           0      -37.805216    3.699146    0.269902
    120          6           0      -36.162402    5.085616    0.159806
    121          1           0      -36.811175    5.953850    0.143970
    122          6           0      -34.786830    5.266306    0.108335
    123          1           0      -34.351015    6.252434    0.051467
    124          6           0      -33.992528    4.122790    0.131221
    125          7           0      -32.613204    3.919334    0.096745
    126          6           0      -31.594977    4.887960    0.026385
    127          8           0      -31.917688    6.097271   -0.013919
    128          6           0      -30.280144    4.367517    0.008816
    129          6           0      -30.041086    2.963218    0.058545
    130          6           0      -28.684120    2.474122    0.038200
    131          6           0       36.726205    3.802153    0.231194
    132          6           0       36.162406    5.085613    0.159639
    133          6           0       35.932451    2.667813    0.252827
    134          6           0       34.786834    5.266302    0.108175
    135          6           0       34.542610    2.826811    0.202296
    136          6           0       33.992531    4.122788    0.131094
    137          6           0       32.419392    2.541454    0.147706
    138          7           0       33.561127    1.865994    0.211379
    139          6           0       31.594979    4.887956    0.026263
    140          7           0       32.613207    3.919331    0.096635
    141          6           0       31.095661    2.032315    0.127661
    142          6           0       30.835996    0.627601    0.175852
    143          8           0       31.917691    6.097266   -0.014069
    144          6           0       30.280146    4.367513    0.008717
    145          6           0       30.041088    2.963216    0.058478
    146          6           0       29.560670    0.167059    0.155068
    147          6           0       29.160120    5.275111   -0.060522
    148          6           0       28.684122    2.474121    0.038156
    149          6           0       28.465282    1.082944    0.086242
    150          6           0       27.891106    4.818238   -0.078612
    151          1           0       36.366124    1.675614    0.307806
    152          6           0       27.606211    3.403769   -0.029327
    153          6           0       27.122695    0.629407    0.065199
    154          6           0       26.261920    2.965535   -0.048923
    155          1           0       34.351019    6.252429    0.051289
    156          6           0       24.902828    0.849831   -0.002216
    157          6           0       18.031040    1.960975   -0.154740
    158          6           0       23.576942    1.263294   -0.049395
    159          7           0       26.095667    1.568164    0.001257
    160          6           0       25.305482   -0.511592    0.060284
    161          6           0       20.399028    1.292777   -0.103900
    162          6           0       16.658524    1.670387   -0.159618
    163          8           0       25.242438    3.689786   -0.105546
    164          8           0       20.815333    2.432943   -0.138519
    165          7           0       26.673688   -0.619331    0.100539
    166          6           0       18.955371    0.945036   -0.108425
    167          6           0       22.662952    0.222920   -0.029763
    168          6           0       24.355735   -1.533222    0.075908
    169          6           0       23.027737   -1.138790    0.030167
    170          6           0       16.224257    0.367048   -0.118070
    171          1           0       31.674107   -0.056598    0.228369
    172          6           0       18.535864   -0.409021   -0.066203
    173          6           0       20.881889   -1.133419   -0.010483
    174          7           0       21.261418    0.210093   -0.055938
    175          6           0       14.764725    0.101394   -0.122844
    176          6           0       17.155595   -0.701552   -0.070203
    177          8           0       13.920616    0.971828   -0.164272
    178          6           0       19.470853   -1.473766   -0.018011
    179          7           0       21.889955   -1.945502    0.038638
    180          1           0       29.364717    6.338735   -0.097679
    181          6           0       16.733135   -2.054088   -0.025709
    182          6           0       19.032953   -2.779317    0.022716
    183          1           0       29.351801   -0.895164    0.190448
    184          6           0       15.305389   -2.315773   -0.024411
    185          6           0       17.662974   -3.069715    0.019153
    186          7           0       14.414553   -1.241004   -0.074132
    187          1           0       27.057393    5.508409   -0.130604
    188          1           0       18.366655    2.989517   -0.187182
    189          1           0       23.291230    2.299289   -0.095078
    190          1           0       15.935590    2.475260   -0.196048
    191          7           0       14.711803   -3.466565    0.022321
    192          1           0       24.640004   -2.577054    0.123478
    193          1           0       19.752271   -3.587216    0.059304
    194          1           0       17.333261   -4.099952    0.052926
    195          6           0       10.832737   -2.125427   -0.046965
    196          6           0       11.015638   -3.527771    0.020253
    197          6           0       11.874949   -1.208753   -0.086302
    198          6           0       13.129563   -1.794474   -0.055922
    199          6           0       13.346814   -3.188026    0.006183
    200          6           0       12.289988   -4.084827    0.046220
    201          1           0       11.719803   -0.145054   -0.134301
    202          1           0       12.447645   -5.154675    0.096335
    203          1           0       36.811179    5.953846    0.143777
    204          1           0       37.805221    3.699145    0.269751
 ---------------------------------------------------------------------

 SCF Done:  E(UwB97XD) =  -7044.19717330     A.U. after    1 cycles

 Alpha virt. eigenvalues --    2.52022   2.52553   2.52875   2.53196   2.53276
 Alpha virt. eigenvalues --    2.53346   2.53358   2.53383   2.53550   2.53642
 Alpha virt. eigenvalues --    2.53748   2.53798   2.54445   2.54555   2.54668

  Beta  occ. eigenvalues --  -19.25177 -19.25173 -19.24958 -19.24958 -19.22384
  Beta  occ. eigenvalues --  -19.22295 -19.22145 -19.22063 -19.19111 -19.19111
  Beta  occ. eigenvalues --  -19.18958 -19.18958 -14.51376 -14.51375 -14.51099
  Beta  occ. eigenvalues --  -14.51099 -14.50277 -14.50229 -14.50020 -14.49972
  Beta  occ. eigenvalues --  -14.48922 -14.48922 -14.48687 -14.48687 -14.43758
  Beta  occ. eigenvalues --  -14.43749 -14.43537 -14.43535 -14.42026 -14.41897
  Beta  occ. eigenvalues --  -14.41839 -14.41709 -14.39928 -14.39928 -14.39770
  Beta  occ. eigenvalues --  -14.39770 -10.43100 -10.43099 -10.42891 -10.42891
  Beta  occ. eigenvalues --  -10.40271 -10.40209 -10.40187 -10.40132 -10.38155
  Beta  occ. eigenvalues --  -10.38146 -10.37870 -10.37869 -10.37325 -10.37325
  Beta  occ. eigenvalues --  -10.37191 -10.37191 -10.36634 -10.36630 -10.36450
  Beta  occ. eigenvalues --  -10.36445 -10.34820 -10.34820 -10.34593 -10.34593
  Beta  occ. eigenvalues --  -10.33876 -10.33849 -10.33539 -10.33509 -10.33098
  Beta  occ. eigenvalues --  -10.33097 -10.33065 -10.33064 -10.33004 -10.33003
  Beta  occ. eigenvalues --  -10.32937 -10.32936 -10.32927 -10.32926 -10.32910
  Beta  occ. eigenvalues --  -10.32907 -10.32864 -10.32860 -10.32860 -10.32857
  Beta  occ. eigenvalues --  -10.32548 -10.32530 -10.32486 -10.32486 -10.32187
  Beta  occ. eigenvalues --  -10.32161 -10.32011 -10.32011 -10.31735 -10.31724
  Beta  occ. eigenvalues --  -10.31709 -10.31708 -10.31634 -10.31633 -10.31557
  Beta  occ. eigenvalues --  -10.31503 -10.31496 -10.31491 -10.31491 -10.31439
  Beta  occ. eigenvalues --  -10.31304 -10.31301 -10.31292 -10.31292 -10.31224
  Beta  occ. eigenvalues --  -10.31223 -10.30517 -10.30505 -10.30497 -10.30497
  Beta  occ. eigenvalues --  -10.30417 -10.30396 -10.30257 -10.30235 -10.30022
  Beta  occ. eigenvalues --  -10.30022 -10.29939 -10.29939 -10.29814 -10.29797
  Beta  occ. eigenvalues --  -10.29652 -10.29650 -10.29629 -10.29629 -10.29621
  Beta  occ. eigenvalues --  -10.29363 -10.29330 -10.29273 -10.29217 -10.29205
  Beta  occ. eigenvalues --  -10.29153 -10.29104 -10.29036 -10.29025 -10.28960
  Beta  occ. eigenvalues --  -10.28633 -10.28499 -10.28498 -10.28383 -10.28383
  Beta  occ. eigenvalues --  -10.27948 -10.27948 -10.27904 -10.27904 -10.27872
  Beta  occ. eigenvalues --  -10.27872 -10.27699 -10.27699 -10.27517 -10.27517
  Beta  occ. eigenvalues --  -10.27281 -10.27281 -10.27207 -10.27207 -10.26776
  Beta  occ. eigenvalues --  -10.26776 -10.26711 -10.26711 -10.26676 -10.26676
  Beta  occ. eigenvalues --  -10.26603 -10.26603  -1.19245  -1.19236  -1.18987
  Beta  occ. eigenvalues --   -1.18986  -1.16797  -1.16641  -1.16532  -1.16360
  Beta  occ. eigenvalues --   -1.14205  -1.14205  -1.13999  -1.13992  -1.13935
  Beta  occ. eigenvalues --   -1.13935  -1.13641  -1.13640  -1.12216  -1.12043
  Beta  occ. eigenvalues --   -1.11964  -1.11704  -1.09459  -1.09458  -1.09248
  Beta  occ. eigenvalues --   -1.09248  -1.02725  -1.02723  -1.01806  -1.01798
  Beta  occ. eigenvalues --   -1.01301  -1.01299  -1.00931  -1.00664  -1.00334
  Beta  occ. eigenvalues --   -1.00007  -0.99560  -0.99369  -0.98887  -0.98887
  Beta  occ. eigenvalues --   -0.98392  -0.98392  -0.97414  -0.97413  -0.96927
  Beta  occ. eigenvalues --   -0.96854  -0.96396  -0.96395  -0.95854  -0.95388
  Beta  occ. eigenvalues --   -0.95262  -0.94511  -0.94502  -0.93971  -0.93666
  Beta  occ. eigenvalues --   -0.93434  -0.93131  -0.92173  -0.91396  -0.91380
  Beta  occ. eigenvalues --   -0.91149  -0.90228  -0.90222  -0.88415  -0.88361
  Beta  occ. eigenvalues --   -0.87725  -0.87695  -0.87090  -0.86843  -0.86570
  Beta  occ. eigenvalues --   -0.86350  -0.85882  -0.85746  -0.85594  -0.85534
  Beta  occ. eigenvalues --   -0.85321  -0.85226  -0.84961  -0.84769  -0.84343
  Beta  occ. eigenvalues --   -0.84297  -0.84036  -0.83695  -0.83502  -0.83358
  Beta  occ. eigenvalues --   -0.83225  -0.82839  -0.81898  -0.81644  -0.80719
  Beta  occ. eigenvalues --   -0.80651  -0.80026  -0.79872  -0.79155  -0.78910
  Beta  occ. eigenvalues --   -0.78320  -0.78273  -0.78027  -0.77894  -0.77236
  Beta  occ. eigenvalues --   -0.76304  -0.76172  -0.75485  -0.75023  -0.74861
  Beta  occ. eigenvalues --   -0.74791  -0.74559  -0.74485  -0.74473  -0.74170
  Beta  occ. eigenvalues --   -0.73887  -0.73072  -0.73004  -0.72824  -0.72630
  Beta  occ. eigenvalues --   -0.72178  -0.71557  -0.71286  -0.71223  -0.71090
  Beta  occ. eigenvalues --   -0.71058  -0.70752  -0.70472  -0.70308  -0.70113
  Beta  occ. eigenvalues --   -0.69793  -0.69568  -0.69392  -0.69258  -0.68367
  Beta  occ. eigenvalues --   -0.68360  -0.67966  -0.67931  -0.67871  -0.67797
  Beta  occ. eigenvalues --   -0.67033  -0.66575  -0.66349  -0.66086  -0.65569
  Beta  occ. eigenvalues --   -0.65499  -0.65073  -0.64604  -0.64210  -0.64101
  Beta  occ. eigenvalues --   -0.63868  -0.63639  -0.63367  -0.63254  -0.62805
  Beta  occ. eigenvalues --   -0.62644  -0.62407  -0.62221  -0.61673  -0.61324
  Beta  occ. eigenvalues --   -0.61207  -0.60855  -0.60829  -0.60734  -0.60675
  Beta  occ. eigenvalues --   -0.60436  -0.60356  -0.59475  -0.59236  -0.59043
  Beta  occ. eigenvalues --   -0.59021  -0.58919  -0.58855  -0.58693  -0.58666
  Beta  occ. eigenvalues --   -0.58519  -0.58506  -0.58318  -0.58244  -0.58003
  Beta  occ. eigenvalues --   -0.57806  -0.57680  -0.57457  -0.57212  -0.57138
  Beta  occ. eigenvalues --   -0.57023  -0.56711  -0.56517  -0.56420  -0.56301
  Beta  occ. eigenvalues --   -0.56156  -0.56088  -0.56057  -0.55985  -0.55985
  Beta  occ. eigenvalues --   -0.55841  -0.55733  -0.55556  -0.55556  -0.55525
  Beta  occ. eigenvalues --   -0.55473  -0.55340  -0.55194  -0.55054  -0.54796
  Beta  occ. eigenvalues --   -0.54753  -0.54397  -0.54230  -0.54081  -0.54025
  Beta  occ. eigenvalues --   -0.53784  -0.53625  -0.53516  -0.53490  -0.53464
  Beta  occ. eigenvalues --   -0.53385  -0.53137  -0.53101  -0.53022  -0.52985
  Beta  occ. eigenvalues --   -0.52978  -0.52890  -0.52864  -0.52522  -0.52445
  Beta  occ. eigenvalues --   -0.52002  -0.51977  -0.51928  -0.51745  -0.51740
  Beta  occ. eigenvalues --   -0.51251  -0.51174  -0.51152  -0.51094  -0.51025
  Beta  occ. eigenvalues --   -0.51001  -0.50710  -0.50708  -0.50699  -0.50592
  Beta  occ. eigenvalues --   -0.50511  -0.50481  -0.50408  -0.50374  -0.50258
  Beta  occ. eigenvalues --   -0.50100  -0.49849  -0.49757  -0.49681  -0.49509
  Beta  occ. eigenvalues --   -0.49461  -0.49388  -0.49218  -0.49117  -0.48707
  Beta  occ. eigenvalues --   -0.48706  -0.48627  -0.48616  -0.48615  -0.48426
  Beta  occ. eigenvalues --   -0.48377  -0.48364  -0.48323  -0.48269  -0.48222
  Beta  occ. eigenvalues --   -0.48013  -0.47920  -0.47775  -0.47464  -0.47463
  Beta  occ. eigenvalues --   -0.47284  -0.47284  -0.47170  -0.46657  -0.46657
  Beta  occ. eigenvalues --   -0.46628  -0.46628  -0.46096  -0.46088  -0.45852
  Beta  occ. eigenvalues --   -0.45852  -0.44830  -0.44666  -0.44639  -0.44456
  Beta  occ. eigenvalues --   -0.44441  -0.44319  -0.44220  -0.44185  -0.44127
  Beta  occ. eigenvalues --   -0.44127  -0.43728  -0.43717  -0.43717  -0.43381
  Beta  occ. eigenvalues --   -0.43372  -0.42561  -0.42546  -0.42546  -0.42268
  Beta  occ. eigenvalues --   -0.42210  -0.42143  -0.41693  -0.41411  -0.41261
  Beta  occ. eigenvalues --   -0.40965  -0.40947  -0.40627  -0.40298  -0.40082
  Beta  occ. eigenvalues --   -0.39950  -0.39950  -0.39591  -0.39556  -0.39539
  Beta  occ. eigenvalues --   -0.39266  -0.39055  -0.39043  -0.39039  -0.38721
  Beta  occ. eigenvalues --   -0.38418  -0.38407  -0.38142  -0.38057  -0.37986
  Beta  occ. eigenvalues --   -0.37953  -0.37936  -0.37642  -0.37638  -0.37638
  Beta  occ. eigenvalues --   -0.37541  -0.37538  -0.37516  -0.37401  -0.36975
  Beta  occ. eigenvalues --   -0.36517  -0.36277  -0.36234  -0.36144  -0.36143
  Beta  occ. eigenvalues --   -0.36137  -0.35959  -0.35881  -0.35881  -0.35851
  Beta  occ. eigenvalues --   -0.35687  -0.34813  -0.34813  -0.34595  -0.33836
  Beta  occ. eigenvalues --   -0.33836  -0.33677  -0.33677  -0.33646  -0.33619
  Beta  occ. eigenvalues --   -0.33284  -0.33132  -0.32970  -0.32957  -0.31736
  Beta  occ. eigenvalues --   -0.31420  -0.31418  -0.30680  -0.30602  -0.30474
  Beta  occ. eigenvalues --   -0.30232  -0.30143  -0.29960  -0.29833  -0.29804
  Beta  occ. eigenvalues --   -0.28166  -0.27985  -0.27467  -0.26239  -0.25735
  Beta  occ. eigenvalues --   -0.25725  -0.20791  -0.19214  -0.19214
  Beta virt. eigenvalues --   -0.06485  -0.06456  -0.05238  -0.00867  -0.00187
  Beta virt. eigenvalues --    0.00283   0.01105   0.01783   0.02123   0.02519
  Beta virt. eigenvalues --    0.02706   0.02839   0.02874   0.03071   0.03921

 Mulliken charges and spin densities:
               1          2
     1  C   -0.087806  -0.069808
     2  H    0.126166   0.003816
     3  C   -0.088207  -0.082532
     4  H    0.126185   0.004400
     5  C   -0.309522  -0.138704
     6  C    0.555916  -0.045311
     7  O   -0.464576  -0.096795
     8  N   -0.593636   0.023212
     9  C    0.546442   0.005913
    10  N   -0.423193  -0.070811
    11  C   -0.298108  -0.078104
    12  C   -0.065167  -0.058255
    13  H    0.123698   0.003032
    14  C   -0.065926  -0.049207
    15  H    0.123319   0.002625
    16  C   -0.296038  -0.086269
    17  C    0.543034   0.007281
    18  N   -0.424182  -0.071134
    19  C   -0.030444   0.006610
    20  C   -0.118978  -0.000000
    21  H    0.129309   0.000000
    22  C   -0.030444  -0.006610
    23  C    0.215281   0.001971
    24  C   -0.032968  -0.000000
    25  H    0.143148   0.000000
    26  C    0.215281  -0.001971
    27  N   -0.591920   0.022775
    28  C    0.555685  -0.040487
    29  O   -0.465334  -0.093889
    30  C   -0.309210  -0.149928
    31  C    0.157858   0.052540
    32  C    0.160050   0.048351
    33  C   -0.088207   0.082532
    34  H    0.126185  -0.004400
    35  C   -0.087806   0.069808
    36  H    0.126166  -0.003816
    37  C   -0.309210   0.149928
    38  C    0.555685   0.040487
    39  O   -0.465334   0.093889
    40  N   -0.591920  -0.022775
    41  C    0.543034  -0.007281
    42  N   -0.424182   0.071134
    43  C   -0.296038   0.086269
    44  C   -0.065926   0.049207
    45  H    0.123319  -0.002625
    46  C   -0.065167   0.058255
    47  H    0.123698  -0.003032
    48  C   -0.298108   0.078104
    49  C    0.546442  -0.005913
    50  N   -0.423193   0.070811
    51  C   -0.030220  -0.019370
    52  C   -0.097443   0.029343
    53  H    0.136488  -0.001445
    54  C   -0.035401  -0.014218
    55  C    0.231535   0.021987
    56  C   -0.016544  -0.019321
    57  H    0.151280   0.000514
    58  C    0.222719   0.023754
    59  N   -0.593636  -0.023212
    60  C    0.555916   0.045311
    61  O   -0.464576   0.096795
    62  C   -0.309522   0.138704
    63  C    0.160050  -0.048351
    64  C    0.157858  -0.052540
    65  C   -0.032355   0.000953
    66  H    0.148317  -0.000044
    67  C   -0.029534  -0.000990
    68  H    0.148571   0.000043
    69  C   -0.281131   0.000888
    70  C    0.622232   0.000883
    71  O   -0.395228   0.001749
    72  N   -0.615991  -0.000269
    73  C    0.572432  -0.006159
    74  N   -0.396792   0.005450
    75  C   -0.264889   0.002991
    76  C   -0.021378  -0.003192
    77  H    0.140460   0.000137
    78  C   -0.023893   0.001944
    79  H    0.139802  -0.000081
    80  C   -0.261126  -0.002769
    81  C    0.566635   0.000854
    82  N   -0.397105  -0.001068
    83  C   -0.034990   0.000282
    84  C   -0.123738  -0.000373
    85  H    0.128241   0.000018
    86  C   -0.024756   0.000136
    87  C    0.202535  -0.000305
    88  C   -0.033939   0.000223
    89  H    0.141789  -0.000008
    90  C    0.221066  -0.000298
    91  N   -0.611758   0.000024
    92  C    0.618308   0.000065
    93  O   -0.399578  -0.000256
    94  C   -0.278267  -0.000944
    95  C    0.167813   0.001046
    96  C    0.171274  -0.000902
    97  C   -0.140203   0.000022
    98  H    0.103305  -0.000001
    99  C   -0.140072  -0.000016
   100  H    0.103525   0.000001
   101  C   -0.332633   0.000038
   102  C    0.490183  -0.000021
   103  O   -0.545832  -0.000015
   104  N   -0.567617   0.000015
   105  C    0.516478  -0.000023
   106  N   -0.451860  -0.000007
   107  C   -0.332411   0.000020
   108  C   -0.106187  -0.000020
   109  H    0.106123   0.000001
   110  C   -0.107527   0.000018
   111  H    0.105963  -0.000001
   112  C   -0.326698  -0.000021
   113  C    0.510967   0.000006
   114  N   -0.447332  -0.000005
   115  C   -0.026030   0.000002
   116  C   -0.154213  -0.000002
   117  H    0.127445   0.000000
   118  C   -0.154058   0.000001
   119  H    0.138217  -0.000000
   120  C   -0.183838  -0.000001
   121  H    0.138278   0.000000
   122  C   -0.107492   0.000000
   123  H    0.134434  -0.000000
   124  C    0.205964  -0.000000
   125  N   -0.559127  -0.000004
   126  C    0.485059   0.000010
   127  O   -0.549332   0.000008
   128  C   -0.332797  -0.000001
   129  C    0.144832   0.000011
   130  C    0.148424  -0.000026
   131  C   -0.154058  -0.000001
   132  C   -0.183838   0.000001
   133  C   -0.154212   0.000002
   134  C   -0.107492  -0.000000
   135  C   -0.026030  -0.000002
   136  C    0.205965   0.000000
   137  C    0.510967  -0.000006
   138  N   -0.447332   0.000005
   139  C    0.485059  -0.000010
   140  N   -0.559127   0.000004
   141  C   -0.326698   0.000021
   142  C   -0.107527  -0.000018
   143  O   -0.549333  -0.000008
   144  C   -0.332797   0.000001
   145  C    0.144832  -0.000011
   146  C   -0.106186   0.000020
   147  C   -0.140203  -0.000022
   148  C    0.148424   0.000026
   149  C   -0.332411  -0.000020
   150  C   -0.140072   0.000016
   151  H    0.127445  -0.000000
   152  C   -0.332633  -0.000038
   153  C    0.516478   0.000023
   154  C    0.490184   0.000021
   155  H    0.134434   0.000000
   156  C    0.202535   0.000305
   157  C   -0.032355  -0.000953
   158  C   -0.033939  -0.000223
   159  N   -0.567617  -0.000015
   160  C   -0.024756  -0.000136
   161  C    0.618308  -0.000065
   162  C   -0.029534   0.000990
   163  O   -0.545832   0.000015
   164  O   -0.399578   0.000256
   165  N   -0.451860   0.000007
   166  C   -0.278267   0.000944
   167  C    0.221066   0.000298
   168  C   -0.123738   0.000373
   169  C   -0.034990  -0.000282
   170  C   -0.281131  -0.000888
   171  H    0.105963   0.000001
   172  C    0.167813  -0.001046
   173  C    0.566635  -0.000854
   174  N   -0.611758  -0.000024
   175  C    0.622232  -0.000883
   176  C    0.171274   0.000902
   177  O   -0.395228  -0.001749
   178  C   -0.261126   0.002769
   179  N   -0.397105   0.001068
   180  H    0.103305   0.000001
   181  C   -0.264889  -0.002991
   182  C   -0.023893  -0.001944
   183  H    0.106123  -0.000001
   184  C    0.572432   0.006159
   185  C   -0.021378   0.003192
   186  N   -0.615991   0.000269
   187  H    0.103525  -0.000001
   188  H    0.148317   0.000044
   189  H    0.141789   0.000008
   190  H    0.148571  -0.000043
   191  N   -0.396792  -0.005450
   192  H    0.128241  -0.000018
   193  H    0.139802   0.000081
   194  H    0.140460  -0.000137
   195  C    0.222719  -0.023754
   196  C   -0.030220   0.019370
   197  C   -0.016544   0.019321
   198  C    0.231535  -0.021987
   199  C   -0.035401   0.014218
   200  C   -0.097443  -0.029343
   201  H    0.151280  -0.000514
   202  H    0.136488   0.001445
   203  H    0.138278  -0.000000
   204  H    0.138217   0.000000
 Sum of Mulliken charges =  -6.00000  -0.00000

 Dipole moment (field-independent basis, Debye):
    X=             -0.0000    Y=            -39.3321    Z=             -0.0598  Tot=             39.3321
 Quadrupole moment (field-independent basis, Debye-Ang):
   XX=         -17907.8348   YY=          -1285.1107   ZZ=           -935.9325
   XY=              0.0005   XZ=              0.0161   YZ=              2.3505

 Normal termination of Gaussian 16 at Tue Feb  6 08:52:30 2024.
