 Gaussian 16, Revision B.01,
 Gaussian 16:  ES64L-G16RevB.01 20-Dec-2017

 -------------------------------------------------------------
 #p opt uwB97XD/6-311(d,p) Geom=AllCheck guess=read pop=chelpg
 -------------------------------------------------------------

 Structure from the checkpoint file:  "checkpoint.chk"
 -----
 01_42
 -----
 Charge = -2 Multiplicity = 3

 SCF Done:  E(UwB97XD) =  -4773.09824293     A.U. after    1 cycles
 SCF Done:  E(UwB97XD) =  -4773.09823739     A.U. after    5 cycles
 SCF Done:  E(UwB97XD) =  -4773.09811693     A.U. after    6 cycles
 SCF Done:  E(UwB97XD) =  -4773.09823802     A.U. after    6 cycles
 SCF Done:  E(UwB97XD) =  -4773.09824193     A.U. after    5 cycles
 SCF Done:  E(UwB97XD) =  -4773.09818435     A.U. after    5 cycles
 SCF Done:  E(UwB97XD) =  -4773.09823181     A.U. after    5 cycles
 SCF Done:  E(UwB97XD) =  -4773.09823010     A.U. after    5 cycles
 Optimization completed.
    -- Stationary point found.

                         Standard orientation:
 ---------------------------------------------------------------------
 Center     Atomic      Atomic             Coordinates (Angstroms)
 Number     Number       Type             X           Y           Z
 ---------------------------------------------------------------------
      1          6           0        1.817506   17.355748   -0.000000
      2          1           0        2.669682   16.687834   -0.000000
      3          6           0        1.987118   18.742177   -0.000000
      4          1           0        2.980228   19.175349   -0.000000
      5          6           0        0.899489   19.593561   -0.000000
      6          6           0        1.134391   21.051165   -0.000000
      7          8           0        2.223144   21.575339   -0.000000
      8          7           0       -0.037549   21.824117   -0.000000
      9          6           0       -1.343531   21.334310   -0.000000
     10          7           0       -2.242977   22.269749   -0.000000
     11          6           0       -1.559926   19.898297   -0.000000
     12          6           0       -2.826172   19.354954   -0.000000
     13          1           0       -3.680440   20.020870   -0.000000
     14          6           0       -2.997226   17.964860   -0.000000
     15          1           0       -3.986914   17.525003   -0.000000
     16          6           0       -1.905890   17.125294   -0.000000
     17          6           0        0.322838   15.385372   -0.000000
     18          7           0        1.221379   14.450361   -0.000000
     19          6           0        0.527829   13.255339   -0.000000
     20          6           0        1.051448   11.961499   -0.000000
     21          1           0        2.111164   11.757558   -0.000000
     22          6           0        0.104635   10.958716   -0.000000
     23          6           0       -1.303765   11.190047   -0.000000
     24          6           0       -1.822263   12.488837   -0.000000
     25          1           0       -2.883775   12.682191   -0.000000
     26          6           0       -0.870827   13.489471   -0.000000
     27          7           0       -0.986560   14.886383   -0.000000
     28          6           0       -2.142713   15.650891   -0.000000
     29          8           0       -3.246722   15.160112   -0.000000
     30          6           0        0.547029   16.811548   -0.000000
     31          6           0       -0.593738   17.659899   -0.000000
     32          6           0       -0.415634   19.061010   -0.000000
     33          6           0        2.171022    5.167124   -0.000000
     34          1           0        3.027464    4.504129   -0.000000
     35          6           0        2.322103    6.534088   -0.000000
     36          1           0        3.304039    6.990923   -0.000000
     37          6           0        1.200772    7.380942   -0.000000
     38          6           0        1.412430    8.820092   -0.000000
     39          8           0        2.493888    9.384735   -0.000000
     40          7           0        0.223741    9.573077   -0.000000
     41          6           0       -1.073994    9.064573   -0.000000
     42          7           0       -1.994121   10.010671   -0.000000
     43          6           0       -1.263592    7.652428   -0.000000
     44          6           0       -2.547753    7.077500   -0.000000
     45          1           0       -3.406362    7.737569   -0.000000
     46          6           0       -2.694884    5.711529   -0.000000
     47          1           0       -3.676065    5.252802   -0.000000
     48          6           0       -1.573449    4.864693   -0.000000
     49          6           0        0.699080    3.176146   -0.000000
     50          7           0        1.618052    2.241314   -0.000000
     51          6           0        0.926525    1.050680   -0.000000
     52          6           0        1.448885   -0.242666    0.000000
     53          1           0        2.510697   -0.434644    0.000000
     54          6           0        0.500191   -1.248998    0.000000
     55          6           0       -0.896374   -1.016529    0.000000
     56          6           0       -1.422481    0.272052   -0.000000
     57          1           0       -2.483115    0.470938   -0.000000
     58          6           0       -0.476305    1.280945   -0.000000
     59          7           0       -0.598523    2.667750   -0.000000
     60          6           0       -1.785449    3.424295   -0.000000
     61          8           0       -2.868662    2.865952   -0.000000
     62          6           0        0.888739    4.597925   -0.000000
     63          6           0       -0.265638    5.414976   -0.000000
     64          6           0       -0.106284    6.833708   -0.000000
     65          6           0        2.485311   -7.107749    0.000000
     66          1           0        3.341982   -7.770290    0.000000
     67          6           0        2.648450   -5.716736    0.000000
     68          1           0        3.637847   -5.275481    0.000000
     69          6           0        1.556612   -4.876796    0.000000
     70          6           0        1.784443   -3.407373    0.000000
     71          8           0        2.880531   -2.898355    0.000000
     72          7           0        0.619375   -2.644402    0.000000
     73          6           0       -0.686908   -3.145753    0.000000
     74          7           0       -1.590339   -2.219446    0.000000
     75          6           0       -0.900064   -4.581419    0.000000
     76          6           0       -2.163522   -5.131624    0.000000
     77          1           0       -3.020363   -4.469206    0.000000
     78          6           0       -2.326903   -6.523096    0.000000
     79          1           0       -3.315889   -6.965115    0.000000
     80          6           0       -1.234585   -7.361604    0.000000
     81          6           0        1.007136   -9.092556    0.000000
     82          7           0        1.910129  -10.019569    0.000000
     83          6           0        1.217546  -11.222146    0.000000
     84          6           0        1.744331  -12.511641    0.000000
     85          1           0        2.804861  -12.711191    0.000000
     86          6           0        0.799753  -13.520566    0.000000
     87          6           0       -0.605272  -13.292493    0.000000
     88          6           0       -1.127449  -11.997899    0.000000
     89          1           0       -2.189397  -11.806717    0.000000
     90          6           0       -0.179300  -10.991268    0.000000
     91          7           0       -0.299661   -9.595173    0.000000
     92          6           0       -1.462784   -8.833124    0.000000
     93          8           0       -2.560846   -9.337917    0.000000
     94          6           0        1.221379   -7.658319    0.000000
     95          6           0        0.075706   -6.819994    0.000000
     96          6           0        0.246044   -5.418259    0.000000
     97          6           0        2.880963  -19.310189    0.000000
     98          1           0        3.739523  -19.970566    0.000000
     99          6           0        3.027716  -17.943658    0.000000
    100          1           0        4.008021  -17.483051    0.000000
    101          6           0        1.903927  -17.099250    0.000000
    102          6           0        2.112410  -15.659324    0.000000
    103          8           0        3.194640  -15.095981    0.000000
    104          7           0        0.923760  -14.906905    0.000000
    105          6           0       -0.373663  -15.418495    0.000000
    106          7           0       -1.294956  -14.480394    0.000000
    107          6           0       -0.559320  -16.835919    0.000000
    108          6           0       -1.842509  -17.412001    0.000000
    109          1           0       -2.701134  -16.751769    0.000000
    110          6           0       -1.988699  -18.777594    0.000000
    111          1           0       -2.969483  -19.237239    0.000000
    112          6           0       -0.865203  -19.624701    0.000000
    113          6           0        1.413568  -21.306218    0.000000
    114          7           0        2.333366  -22.243869    0.000000
    115          6           0        1.633110  -23.430158    0.000000
    116          6           0        2.114587  -24.741107    0.000000
    117          1           0        3.182791  -24.923635    0.000000
    118          6           0        1.194793  -25.776703    0.000000
    119          1           0        1.546678  -26.803275    0.000000
    120          6           0       -0.185455  -25.527265    0.000000
    121          1           0       -0.877052  -26.362798    0.000000
    122          6           0       -0.687347  -24.233028    0.000000
    123          1           0       -1.745712  -24.016144    0.000000
    124          6           0        0.243429  -23.201030    0.000000
    125          7           0        0.115767  -21.816595    0.000000
    126          6           0       -1.073995  -21.062003    0.000000
    127          8           0       -2.155955  -21.627916    0.000000
    128          6           0        1.598976  -19.884898    0.000000
    129          6           0        0.442427  -19.071554    0.000000
    130          6           0        0.597821  -17.651313    0.000000
    131          6           0       -1.529784   23.459296   -0.000000
    132          6           0       -2.006302   24.768600   -0.000000
    133          6           0       -1.076564   25.794560   -0.000000
    134          6           0        0.300579   25.530049   -0.000000
    135          6           0        0.795066   24.234232   -0.000000
    136          6           0       -0.147634   23.213261   -0.000000
    137          1           0       -3.072419   24.958913   -0.000000
    138          1           0       -1.416628   26.823957   -0.000000
    139          1           0        0.998672   26.359326   -0.000000
    140          1           0        1.853005   24.016495   -0.000000
 ---------------------------------------------------------------------

 Alpha virt. eigenvalues --    1.33747   1.33997   1.34180   1.34583   1.34734
 Alpha virt. eigenvalues --    1.34922   1.34995   1.35056   1.35140   1.35391
 Alpha virt. eigenvalues --    1.35542   1.35715   1.36332   1.36367   1.36386

  Beta  occ. eigenvalues --  -19.18547 -19.17042 -19.15029 -19.14851 -19.11235
  Beta  occ. eigenvalues --  -19.10979 -19.10045 -19.10005 -14.45337 -14.43200
  Beta  occ. eigenvalues --  -14.41372 -14.41106 -14.39698 -14.39124 -14.38342
  Beta  occ. eigenvalues --  -14.38321 -14.37591 -14.35989 -14.33926 -14.33722
  Beta  occ. eigenvalues --  -14.31258 -14.30813 -14.29901 -14.29873 -10.36492
  Beta  occ. eigenvalues --  -10.34988 -10.32989 -10.32808 -10.32042 -10.29350
  Beta  occ. eigenvalues --  -10.29349 -10.29108 -10.28177 -10.28130 -10.27946
  Beta  occ. eigenvalues --  -10.27905 -10.27532 -10.27071 -10.27022 -10.26910
  Beta  occ. eigenvalues --  -10.26708 -10.26594 -10.26330 -10.26034 -10.26018
  Beta  occ. eigenvalues --  -10.25772 -10.25709 -10.25619 -10.25360 -10.25074
  Beta  occ. eigenvalues --  -10.24737 -10.24731 -10.24661 -10.24250 -10.24238
  Beta  occ. eigenvalues --  -10.24230 -10.24134 -10.24071 -10.24026 -10.24000
  Beta  occ. eigenvalues --  -10.23910 -10.23604 -10.23548 -10.23487 -10.23440
  Beta  occ. eigenvalues --  -10.23315 -10.23185 -10.22902 -10.22854 -10.22787
  Beta  occ. eigenvalues --  -10.22607 -10.22576 -10.22447 -10.22030 -10.21966
  Beta  occ. eigenvalues --  -10.21654 -10.21526 -10.21427 -10.21084 -10.20892
  Beta  occ. eigenvalues --  -10.20770 -10.20547 -10.20368 -10.20164 -10.19806
  Beta  occ. eigenvalues --  -10.19756 -10.19623 -10.19578 -10.19344 -10.19134
  Beta  occ. eigenvalues --  -10.19117 -10.18896 -10.18837 -10.18595 -10.18551
  Beta  occ. eigenvalues --  -10.18534 -10.18529 -10.18525 -10.18464 -10.18457
  Beta  occ. eigenvalues --  -10.18428 -10.18383 -10.18185 -10.18132 -10.17946
  Beta  occ. eigenvalues --  -10.17845 -10.17570 -10.17512 -10.17499 -10.17416
  Beta  occ. eigenvalues --   -1.12846  -1.11154  -1.09190  -1.08981  -1.07993
  Beta  occ. eigenvalues --   -1.06032  -1.05739  -1.05594  -1.04710  -1.04616
  Beta  occ. eigenvalues --   -1.03970  -1.03678  -1.01525  -1.01094  -1.00195
  Beta  occ. eigenvalues --   -1.00133  -0.96410  -0.95435  -0.93778  -0.93485
  Beta  occ. eigenvalues --   -0.91888  -0.91491  -0.91221  -0.90249  -0.89850
  Beta  occ. eigenvalues --   -0.89548  -0.88963  -0.88690  -0.88402  -0.88064
  Beta  occ. eigenvalues --   -0.87605  -0.87546  -0.86252  -0.85880  -0.85218
  Beta  occ. eigenvalues --   -0.84701  -0.83588  -0.82874  -0.82092  -0.81835
  Beta  occ. eigenvalues --   -0.81670  -0.81182  -0.80401  -0.80189  -0.79239
  Beta  occ. eigenvalues --   -0.78935  -0.78724  -0.77375  -0.76622  -0.76178
  Beta  occ. eigenvalues --   -0.75811  -0.75090  -0.74904  -0.74727  -0.74506
  Beta  occ. eigenvalues --   -0.73826  -0.73583  -0.73155  -0.72776  -0.72205
  Beta  occ. eigenvalues --   -0.71920  -0.70725  -0.70295  -0.69705  -0.69145
  Beta  occ. eigenvalues --   -0.68453  -0.68301  -0.67624  -0.67430  -0.66852
  Beta  occ. eigenvalues --   -0.66007  -0.65693  -0.65394  -0.64939  -0.64703
  Beta  occ. eigenvalues --   -0.64104  -0.63663  -0.63065  -0.62933  -0.62715
  Beta  occ. eigenvalues --   -0.61959  -0.61383  -0.61287  -0.60674  -0.60286
  Beta  occ. eigenvalues --   -0.60151  -0.59972  -0.59396  -0.59266  -0.58691
  Beta  occ. eigenvalues --   -0.58229  -0.57523  -0.57422  -0.56793  -0.56747
  Beta  occ. eigenvalues --   -0.56157  -0.55497  -0.55103  -0.54988  -0.54314
  Beta  occ. eigenvalues --   -0.54262  -0.53935  -0.53527  -0.53243  -0.53141
  Beta  occ. eigenvalues --   -0.52850  -0.52437  -0.52024  -0.51549  -0.51101
  Beta  occ. eigenvalues --   -0.50919  -0.50784  -0.50677  -0.50173  -0.50005
  Beta  occ. eigenvalues --   -0.49785  -0.49352  -0.49251  -0.49067  -0.48683
  Beta  occ. eigenvalues --   -0.48591  -0.48588  -0.47768  -0.47681  -0.47390
  Beta  occ. eigenvalues --   -0.47148  -0.47029  -0.46978  -0.46941  -0.46644
  Beta  occ. eigenvalues --   -0.46456  -0.46322  -0.46256  -0.46047  -0.45719
  Beta  occ. eigenvalues --   -0.45648  -0.45567  -0.45341  -0.45305  -0.45284
  Beta  occ. eigenvalues --   -0.45018  -0.44689  -0.44561  -0.44534  -0.44135
  Beta  occ. eigenvalues --   -0.44114  -0.44031  -0.43480  -0.43345  -0.43208
  Beta  occ. eigenvalues --   -0.43054  -0.43007  -0.42648  -0.42431  -0.42378
  Beta  occ. eigenvalues --   -0.42153  -0.41848  -0.41736  -0.41517  -0.41457
  Beta  occ. eigenvalues --   -0.41429  -0.41211  -0.41048  -0.40608  -0.40525
  Beta  occ. eigenvalues --   -0.40502  -0.40364  -0.40289  -0.40157  -0.39941
  Beta  occ. eigenvalues --   -0.39738  -0.39630  -0.39279  -0.39250  -0.39154
  Beta  occ. eigenvalues --   -0.38757  -0.38420  -0.38330  -0.38267  -0.38145
  Beta  occ. eigenvalues --   -0.38039  -0.37606  -0.37394  -0.37328  -0.37187
  Beta  occ. eigenvalues --   -0.37166  -0.36964  -0.36754  -0.36731  -0.36297
  Beta  occ. eigenvalues --   -0.35921  -0.35637  -0.35504  -0.35320  -0.34786
  Beta  occ. eigenvalues --   -0.34295  -0.34147  -0.33707  -0.33580  -0.33385
  Beta  occ. eigenvalues --   -0.32828  -0.32564  -0.32542  -0.32311  -0.31862
  Beta  occ. eigenvalues --   -0.31604  -0.31328  -0.31058  -0.30649  -0.30644
  Beta  occ. eigenvalues --   -0.30527  -0.30157  -0.29473  -0.29444  -0.29064
  Beta  occ. eigenvalues --   -0.28991  -0.28715  -0.28659  -0.28392  -0.28139
  Beta  occ. eigenvalues --   -0.27833  -0.27752  -0.27373  -0.27167  -0.26995
  Beta  occ. eigenvalues --   -0.26708  -0.26594  -0.26149  -0.26143  -0.26087
  Beta  occ. eigenvalues --   -0.25396  -0.25362  -0.25302  -0.24845  -0.24092
  Beta  occ. eigenvalues --   -0.24065  -0.23747  -0.23566  -0.23063  -0.22456
  Beta  occ. eigenvalues --   -0.21517  -0.21439  -0.21011  -0.20827  -0.20326
  Beta  occ. eigenvalues --   -0.19913  -0.19383  -0.18215  -0.17643  -0.15800
  Beta  occ. eigenvalues --   -0.14904
  Beta virt. eigenvalues --   -0.00046   0.02778   0.05596   0.06734   0.06983
  Beta virt. eigenvalues --    0.08822   0.09141   0.09830   0.11104   0.11498
  Beta virt. eigenvalues --    0.12162   0.12606   0.13382   0.13601   0.14991

 Mulliken charges and spin densities:
               1          2
     1  C   -0.015446   0.031504
     2  H    0.124604  -0.001347
     3  C   -0.022944  -0.013075
     4  H    0.125437   0.000576
     5  C   -0.303797   0.029972
     6  C    0.564205  -0.001304
     7  O   -0.338187   0.009864
     8  N   -0.604981  -0.000944
     9  C    0.543878  -0.003834
    10  N   -0.361621   0.006767
    11  C   -0.278107   0.015583
    12  C   -0.002932  -0.010592
    13  H    0.120300   0.000468
    14  C   -0.034992   0.017158
    15  H    0.128885  -0.000799
    16  C   -0.287171  -0.012027
    17  C    0.523686   0.039777
    18  N   -0.345722  -0.028678
    19  C   -0.056704   0.029686
    20  C   -0.026892  -0.027405
    21  H    0.144047   0.001099
    22  C    0.224416   0.023232
    23  C   -0.021912  -0.027759
    24  C   -0.048983   0.041988
    25  H    0.133092  -0.001932
    26  C    0.242982  -0.024325
    27  N   -0.612855   0.000561
    28  C    0.568303   0.003152
    29  O   -0.331652   0.002008
    30  C   -0.253505  -0.019161
    31  C    0.135564   0.008615
    32  C    0.158564  -0.012484
    33  C   -0.024580   0.024272
    34  H    0.102317  -0.001515
    35  C   -0.053822   0.095327
    36  H    0.104207  -0.004943
    37  C   -0.304512   0.070323
    38  C    0.530555   0.028959
    39  O   -0.384540   0.080759
    40  N   -0.597650  -0.019139
    41  C    0.541388   0.017074
    42  N   -0.385929   0.064408
    43  C   -0.316030   0.092027
    44  C   -0.027994   0.088403
    45  H    0.099462  -0.004437
    46  C   -0.052479   0.041578
    47  H    0.104962  -0.002488
    48  C   -0.307465   0.139999
    49  C    0.540505  -0.018888
    50  N   -0.383033   0.081819
    51  C   -0.029692  -0.026507
    52  C   -0.044858   0.038093
    53  H    0.133818  -0.001815
    54  C    0.241020  -0.018585
    55  C   -0.051193   0.027471
    56  C   -0.032246  -0.024856
    57  H    0.140918   0.000897
    58  C    0.228232   0.025318
    59  N   -0.599727  -0.017932
    60  C    0.533764   0.016832
    61  O   -0.378063   0.088778
    62  C   -0.309896   0.133291
    63  C    0.153126  -0.065391
    64  C    0.157339  -0.040661
    65  C   -0.012168   0.011128
    66  H    0.120967  -0.000481
    67  C   -0.030073  -0.002849
    68  H    0.124625   0.000107
    69  C   -0.295469   0.009162
    70  C    0.564714  -0.000809
    71  O   -0.336473   0.002332
    72  N   -0.612942   0.001040
    73  C    0.533751   0.016845
    74  N   -0.355227  -0.011386
    75  C   -0.266622  -0.002704
    76  C   -0.010027   0.005539
    77  H    0.120846  -0.000239
    78  C   -0.031788   0.001197
    79  H    0.125032  -0.000077
    80  C   -0.293206   0.003706
    81  C    0.529562   0.022605
    82  N   -0.353077  -0.015921
    83  C   -0.053732   0.030349
    84  C   -0.032829  -0.026886
    85  H    0.140424   0.001009
    86  C    0.225679   0.026541
    87  C   -0.026200  -0.028448
    88  C   -0.049300   0.042327
    89  H    0.131848  -0.002007
    90  C    0.241527  -0.021293
    91  N   -0.612557   0.001162
    92  C    0.565142  -0.000177
    93  O   -0.335885   0.001404
    94  C   -0.262339  -0.007337
    95  C    0.143800   0.000967
    96  C    0.147147  -0.001820
    97  C   -0.031029   0.048367
    98  H    0.095627  -0.002674
    99  C   -0.055261   0.074785
   100  H    0.101242  -0.004047
   101  C   -0.307367   0.102323
   102  C    0.529859   0.024198
   103  O   -0.384753   0.085114
   104  N   -0.597656  -0.019173
   105  C    0.538958  -0.007190
   106  N   -0.387233   0.083421
   107  C   -0.315451   0.125219
   108  C   -0.029247   0.058215
   109  H    0.098168  -0.003125
   110  C   -0.056734   0.070911
   111  H    0.100155  -0.003918
   112  C   -0.306967   0.117910
   113  C    0.530499  -0.012859
   114  N   -0.386952   0.082221
   115  C   -0.018225  -0.024507
   116  C   -0.106218   0.032569
   117  H    0.091867  -0.001674
   118  C   -0.118720  -0.021469
   119  H    0.084436   0.000974
   120  C   -0.139388   0.034980
   121  H    0.087647  -0.001814
   122  C   -0.059171  -0.022241
   123  H    0.131055   0.000705
   124  C    0.212609   0.029470
   125  N   -0.587391  -0.019435
   126  C    0.526468   0.025712
   127  O   -0.388568   0.091889
   128  C   -0.307173   0.124284
   129  C    0.152555  -0.056397
   130  C    0.155397  -0.054555
   131  C   -0.027327  -0.001887
   132  C   -0.086138   0.002348
   133  C   -0.114353  -0.001434
   134  C   -0.124845   0.002540
   135  C   -0.050671  -0.001588
   136  C    0.226886   0.002170
   137  H    0.109637  -0.000120
   138  H    0.104360   0.000063
   139  H    0.107338  -0.000129
   140  H    0.139459   0.000045
 Sum of Mulliken charges =  -2.00000   2.00000

 Dipole moment (field-independent basis, Debye):
    X=             -1.1346    Y=             47.2117    Z=              0.0000  Tot=             47.2253
 Quadrupole moment (field-independent basis, Debye-Ang):
   XX=           -679.9322   YY=          -2795.2537   ZZ=           -628.2726
   XY=             40.4998   XZ=              0.0000   YZ=             -0.0000

 ESP charges:
               1
     1  C   -0.043317
     2  H    0.087805
     3  C   -0.034934
     4  H    0.108022
     5  C   -0.233562
     6  C    0.625322
     7  O   -0.498654
     8  N   -0.284547
     9  C    0.445221
    10  N   -0.593215
    11  C   -0.112575
    12  C   -0.043122
    13  H    0.097650
    14  C   -0.064843
    15  H    0.114798
    16  C   -0.142594
    17  C    0.325434
    18  N   -0.516947
    19  C    0.285522
    20  C   -0.276074
    21  H    0.195280
    22  C    0.073418
    23  C    0.324419
    24  C   -0.302818
    25  H    0.193048
    26  C   -0.006225
    27  N   -0.127848
    28  C    0.558396
    29  O   -0.487969
    30  C   -0.053756
    31  C    0.035155
    32  C    0.111366
    33  C   -0.044627
    34  H    0.069683
    35  C   -0.108758
    36  H    0.104559
    37  C   -0.215071
    38  C    0.552324
    39  O   -0.533905
    40  N   -0.219281
    41  C    0.413694
    42  N   -0.591114
    43  C   -0.153124
    44  C   -0.070301
    45  H    0.072389
    46  C   -0.061962
    47  H    0.086210
    48  C   -0.224900
    49  C    0.419109
    50  N   -0.590117
    51  C    0.310499
    52  C   -0.299405
    53  H    0.195484
    54  C    0.019620
    55  C    0.302047
    56  C   -0.298198
    57  H    0.200794
    58  C    0.076291
    59  N   -0.229919
    60  C    0.562458
    61  O   -0.527683
    62  C   -0.138646
    63  C    0.095678
    64  C    0.112546
    65  C   -0.010153
    66  H    0.079975
    67  C   -0.066673
    68  H    0.113284
    69  C   -0.188727
    70  C    0.593838
    71  O   -0.496012
    72  N   -0.198792
    73  C    0.408414
    74  N   -0.554676
    75  C   -0.114783
    76  C   -0.016111
    77  H    0.084129
    78  C   -0.080385
    79  H    0.117150
    80  C   -0.161943
    81  C    0.407159
    82  N   -0.541985
    83  C    0.272115
    84  C   -0.284097
    85  H    0.197609
    86  C    0.093170
    87  C    0.300293
    88  C   -0.304837
    89  H    0.197268
    90  C    0.027911
    91  N   -0.192129
    92  C    0.577452
    93  O   -0.494956
    94  C   -0.125868
    95  C    0.079848
    96  C    0.081596
    97  C   -0.086297
    98  H    0.078915
    99  C   -0.091575
   100  H    0.096991
   101  C   -0.235196
   102  C    0.589467
   103  O   -0.543878
   104  N   -0.261322
   105  C    0.443033
   106  N   -0.596241
   107  C   -0.174363
   108  C   -0.028785
   109  H    0.063135
   110  C   -0.131113
   111  H    0.104612
   112  C   -0.202845
   113  C    0.442281
   114  N   -0.627358
   115  C    0.333277
   116  C   -0.239746
   117  H    0.123707
   118  C   -0.129809
   119  H    0.088903
   120  C   -0.161628
   121  H    0.091764
   122  C   -0.193066
   123  H    0.148589
   124  C    0.157160
   125  N   -0.319045
   126  C    0.587674
   127  O   -0.547248
   128  C   -0.115092
   129  C    0.074148
   130  C    0.120565
   131  C    0.351561
   132  C   -0.235192
   133  C   -0.113686
   134  C   -0.134176
   135  C   -0.169688
   136  C    0.105834
   137  H    0.141489
   138  H    0.100272
   139  H    0.101787
   140  H    0.148871
 Sum of ESP charges =  -2.00000

 Normal termination of Gaussian 16 at Sat Sep 30 14:42:04 2023.
